ITEM: TIMESTEP
0
ITEM: NUMBER OF ATOMS
6
ITEM: BOX BOUNDS pp pp pp
0.0000000000000000e+00 1.0000000000000000e+02
0.0000000000000000e+00 1.0000000000000000e+02
0.0000000000000000e+00 1.0000000000000000e+02
ITEM: ATOMS id type xs ys zs
1 1 0.565187 0.498471 0.401372
5 1 0.457514 0.445818 0.461236
2 1 0.463388 0.566506 0.474202
4 1 0.542128 0.550347 0.486884
3 1 0.509793 0.488673 0.528717
6 1 0.587275 0.53713 0.540696
ITEM: TIMESTEP
1000000
ITEM: NUMBER OF ATOMS
6
ITEM: BOX BOUNDS pp pp pp
0.0000000000000000e+00 1.0000000000000000e+02
0.0000000000000000e+00 1.0000000000000000e+02
0.0000000000000000e+00 1.0000000000000000e+02
ITEM: ATOMS id type xs ys zs
6 1 0.677926 0.390318 0.0572495
1 1 0.296597 0.772897 0.555205
4 1 0.435416 0.523861 0.643876
5 1 0.129099 0.23851 0.849396
3 1 0.532977 0.422681 0.791676
2 1 0.0532709 0.738678 0.995705
ITEM: TIMESTEP
2000000
ITEM: NUMBER OF ATOMS
6
ITEM: BOX BOUNDS pp pp pp
0.0000000000000000e+00 1.0000000000000000e+02
0.0000000000000000e+00 1.0000000000000000e+02
0.0000000000000000e+00 1.0000000000000000e+02
ITEM: ATOMS id type xs ys zs
1 1 0.224925 0.0964986 0.0826233
4 1 0.876288 0.465456 0.395534
3 1 0.870892 0.453467 0.3938
5 1 0.697805 0.165719 0.0231773
2 1 0.688308 0.172472 0.0294972
6 1 0.767068 0.733333 0.968474
ITEM: TIMESTEP
3000000
ITEM: NUMBER OF ATOMS
6
ITEM: BOX BOUNDS pp pp pp
0.0000000000000000e+00 1.0000000000000000e+02
0.0000000000000000e+00 1.0000000000000000e+02
0.0000000000000000e+00 1.0000000000000000e+02
ITEM: ATOMS id type xs ys zs
4 1 0.599696 0.105973 0.0864839
3 1 0.601054 0.09926 0.0978342
2 1 0.600485 0.632609 0.351898
5 1 0.599834 0.624582 0.362427
1 1 0.832651 0.245453 0.997915
6 1 0.891566 0.379068 0.996548
ITEM: TIMESTEP
4000000
ITEM: NUMBER OF ATOMS
6
ITEM: BOX BOUNDS pp pp pp
0.0000000000000000e+00 1.0000000000000000e+02
0.0000000000000000e+00 1.0000000000000000e+02
0.0000000000000000e+00 1.0000000000000000e+02
ITEM: ATOMS id type xs ys zs
3 1 0.707865 0.469238 0.124834
4 1 0.702829 0.481449 0.125959
1 1 0.521627 0.332333 0.529352
6 1 0.222231 0.644853 0.609904
5 1 0.986203 0.0743987 0.755632
2 1 0.984531 0.0846741 0.747426
ITEM: TIMESTEP
5000000
ITEM: NUMBER OF ATOMS
6
ITEM: BOX BOUNDS pp pp pp
0.0000000000000000e+00 1.0000000000000000e+02
0.0000000000000000e+00 1.0000000000000000e+02
0.0000000000000000e+00 1.0000000000000000e+02
ITEM: ATOMS id type xs ys zs
6 1 0.69492 0.89657 0.0481399
2 1 0.478352 0.241465 0.179301
1 1 0.486069 0.238082 0.168988
4 1 0.493792 0.234691 0.158682
3 1 0.50139 0.23135 0.148541
5 1 0.470762 0.244788 0.189454
ITEM: TIMESTEP
6000000
ITEM: NUMBER OF ATOMS
6
ITEM: BOX BOUNDS pp pp pp
0.0000000000000000e+00 1.0000000000000000e+02
0.0000000000000000e+00 1.0000000000000000e+02
0.0000000000000000e+00 1.0000000000000000e+02
ITEM: ATOMS id type xs ys zs
6 1 0.502768 0.837728 0.155725
3 1 0.714585 0.270557 0.734417
4 1 0.719505 0.260283 0.740894
1 1 0.724504 0.249844 0.747476
2 1 0.729502 0.239404 0.754058
5 1 0.734422 0.22913 0.760536
ITEM: TIMESTEP
7000000
ITEM: NUMBER OF ATOMS
6
ITEM: BOX BOUNDS pp pp pp
0.0000000000000000e+00 1.0000000000000000e+02
0.0000000000000000e+00 1.0000000000000000e+02
0.0000000000000000e+00 1.0000000000000000e+02
ITEM: ATOMS id type xs ys zs
3 1 0.703783 0.185657 0.64383
6 1 0.71656 0.186951 0.638941
5 1 0.662126 0.166461 0.658928
2 1 0.672782 0.17343 0.654959
1 1 0.679322 0.18487 0.651525
4 1 0.690713 0.189577 0.644922
ITEM: TIMESTEP
8000000
ITEM: NUMBER OF ATOMS
6
ITEM: BOX BOUNDS pp pp pp
0.0000000000000000e+00 1.0000000000000000e+02
0.0000000000000000e+00 1.0000000000000000e+02
0.0000000000000000e+00 1.0000000000000000e+02
ITEM: ATOMS id type xs ys zs
4 1 0.695396 0.180791 0.644811
2 1 0.672342 0.171998 0.65842
5 1 0.663199 0.165255 0.667131
3 1 0.700926 0.191812 0.637702
1 1 0.684091 0.177721 0.654318
6 1 0.709332 0.199368 0.630725
ITEM: TIMESTEP
9000000
ITEM: NUMBER OF ATOMS
6
ITEM: BOX BOUNDS pp pp pp
0.0000000000000000e+00 1.0000000000000000e+02
0.0000000000000000e+00 1.0000000000000000e+02
0.0000000000000000e+00 1.0000000000000000e+02
ITEM: ATOMS id type xs ys zs
3 1 0.706471 0.185849 0.650728
4 1 0.69288 0.18545 0.654016
5 1 0.65709 0.173801 0.648294
2 1 0.670145 0.173805 0.644905
1 1 0.681304 0.179099 0.651124
6 1 0.717397 0.188943 0.64404
ITEM: TIMESTEP
10000000
ITEM: NUMBER OF ATOMS
6
ITEM: BOX BOUNDS pp pp pp
0.0000000000000000e+00 1.0000000000000000e+02
0.0000000000000000e+00 1.0000000000000000e+02
0.0000000000000000e+00 1.0000000000000000e+02
ITEM: ATOMS id type xs ys zs
5 1 0.660286 0.17122 0.650089
2 1 0.670704 0.169273 0.643201
3 1 0.705514 0.188631 0.653241
4 1 0.69509 0.181529 0.649049
1 1 0.682369 0.17641 0.64532
6 1 0.711323 0.199884 0.652207
ITEM: TIMESTEP
11000000
ITEM: NUMBER OF ATOMS
6
ITEM: BOX BOUNDS pp pp pp
0.0000000000000000e+00 1.0000000000000000e+02
0.0000000000000000e+00 1.0000000000000000e+02
0.0000000000000000e+00 1.0000000000000000e+02
ITEM: ATOMS id type xs ys zs
6 1 0.715699 0.189387 0.638795
5 1 0.659143 0.178384 0.64957
2 1 0.669739 0.172743 0.653118
1 1 0.682681 0.174918 0.655103
3 1 0.705518 0.187702 0.646137
4 1 0.692507 0.183812 0.650382
ITEM: TIMESTEP
12000000
ITEM: NUMBER OF ATOMS
6
ITEM: BOX BOUNDS pp pp pp
0.0000000000000000e+00 1.0000000000000000e+02
0.0000000000000000e+00 1.0000000000000000e+02
0.0000000000000000e+00 1.0000000000000000e+02
ITEM: ATOMS id type xs ys zs
2 1 0.669301 0.175955 0.644574
5 1 0.659441 0.167786 0.647011
3 1 0.705981 0.186642 0.651057
1 1 0.679231 0.185137 0.648692
4 1 0.69243 0.185817 0.651997
6 1 0.718902 0.185609 0.649775
ITEM: TIMESTEP
13000000
ITEM: NUMBER OF ATOMS
6
ITEM: BOX BOUNDS pp pp pp
0.0000000000000000e+00 1.0000000000000000e+02
0.0000000000000000e+00 1.0000000000000000e+02
0.0000000000000000e+00 1.0000000000000000e+02
ITEM: ATOMS id type xs ys zs
6 1 0.716042 0.190856 0.638568
5 1 0.659121 0.171198 0.655308
2 1 0.670028 0.174263 0.649647
3 1 0.705194 0.185977 0.645553
4 1 0.693056 0.186171 0.652306
1 1 0.681845 0.178481 0.651724
ITEM: TIMESTEP
14000000
ITEM: NUMBER OF ATOMS
6
ITEM: BOX BOUNDS pp pp pp
0.0000000000000000e+00 1.0000000000000000e+02
0.0000000000000000e+00 1.0000000000000000e+02
0.0000000000000000e+00 1.0000000000000000e+02
ITEM: ATOMS id type xs ys zs
3 1 0.704737 0.189483 0.643892
6 1 0.710065 0.19977 0.637073
5 1 0.66 0.171043 0.657869
2 1 0.673454 0.170085 0.657475
4 1 0.694074 0.182371 0.647467
1 1 0.682956 0.174194 0.64933
ITEM: TIMESTEP
15000000
ITEM: NUMBER OF ATOMS
6
ITEM: BOX BOUNDS pp pp pp
0.0000000000000000e+00 1.0000000000000000e+02
0.0000000000000000e+00 1.0000000000000000e+02
0.0000000000000000e+00 1.0000000000000000e+02
ITEM: ATOMS id type xs ys zs
2 1 0.672648 0.168748 0.652558
5 1 0.6637 0.165378 0.6618
3 1 0.701994 0.192542 0.643913
4 1 0.69588 0.179925 0.643474
1 1 0.683401 0.17501 0.647452
6 1 0.707664 0.205343 0.64391
ITEM: TIMESTEP
16000000
ITEM: NUMBER OF ATOMS
6
ITEM: BOX BOUNDS pp pp pp
0.0000000000000000e+00 1.0000000000000000e+02
0.0000000000000000e+00 1.0000000000000000e+02
0.0000000000000000e+00 1.0000000000000000e+02
ITEM: ATOMS id type xs ys zs
6 1 0.715031 0.195931 0.640908
2 1 0.671964 0.170577 0.654489
5 1 0.659051 0.167978 0.655743
3 1 0.7058 0.187661 0.64556
1 1 0.680887 0.179495 0.649675
4 1 0.692553 0.185302 0.646731
ITEM: TIMESTEP
17000000
ITEM: NUMBER OF ATOMS
6
ITEM: BOX BOUNDS pp pp pp
0.0000000000000000e+00 1.0000000000000000e+02
0.0000000000000000e+00 1.0000000000000000e+02
0.0000000000000000e+00 1.0000000000000000e+02
ITEM: ATOMS id type xs ys zs
3 1 0.705073 0.188753 0.644025
6 1 0.714747 0.197576 0.642416
2 1 0.671911 0.169447 0.651907
5 1 0.659679 0.166276 0.655836
1 1 0.681274 0.179113 0.650765
4 1 0.692602 0.18578 0.648157
ITEM: TIMESTEP
18000000
ITEM: NUMBER OF ATOMS
6
ITEM: BOX BOUNDS pp pp pp
0.0000000000000000e+00 1.0000000000000000e+02
0.0000000000000000e+00 1.0000000000000000e+02
0.0000000000000000e+00 1.0000000000000000e+02
ITEM: ATOMS id type xs ys zs
3 1 0.703278 0.191925 0.643472
6 1 0.715412 0.197029 0.642762
2 1 0.670043 0.172292 0.651522
5 1 0.66041 0.164546 0.656044
1 1 0.682473 0.177245 0.651019
4 1 0.693671 0.183908 0.648287
ITEM: TIMESTEP
19000000
ITEM: NUMBER OF ATOMS
6
ITEM: BOX BOUNDS pp pp pp
0.0000000000000000e+00 1.0000000000000000e+02
0.0000000000000000e+00 1.0000000000000000e+02
0.0000000000000000e+00 1.0000000000000000e+02
ITEM: ATOMS id type xs ys zs
6 1 0.714834 0.197751 0.64113
2 1 0.671659 0.170365 0.654027
5 1 0.659697 0.165286 0.655919
3 1 0.704915 0.190124 0.645183
1 1 0.681501 0.178402 0.649905
4 1 0.692679 0.185018 0.646942
ITEM: TIMESTEP
20000000
ITEM: NUMBER OF ATOMS
6
ITEM: BOX BOUNDS pp pp pp
0.0000000000000000e+00 1.0000000000000000e+02
0.0000000000000000e+00 1.0000000000000000e+02
0.0000000000000000e+00 1.0000000000000000e+02
ITEM: ATOMS id type xs ys zs
3 1 0.70367 0.190614 0.641849
6 1 0.713726 0.197338 0.636824
2 1 0.671939 0.171168 0.656262
5 1 0.66117 0.165162 0.660711
1 1 0.682087 0.178111 0.651141
4 1 0.692694 0.184553 0.64632
