LAMMPS (29 Sep 2021 - Update 2)
OMP_NUM_THREADS environment is not set. Defaulting to 1 thread. (src/comm.cpp:98)
  using 1 OpenMP thread(s) per MPI task
#============Initialization=================
units 			metal
atom_style 		atomic
boundary 		p p p

############################################
#              CLI Variables               #
############################################
variable 		seed index 625000          #
variable 		N index 18                 #
variable 		iter index 1000000         #
variable 		iterther index 100000      #
variable 		iexport index 1000         #
variable 		tempchauf index 3000       #
variable 		Tdamp index 0.001          #
variable 		timestep index 0.0001      #
variable 		box_size index 100		   #
############################################
############################################

#=========Simulation box definition=========
lattice 		sc 1.0
Lattice spacing in x,y,z = 1.0000000 1.0000000 1.0000000
region 			bigbox block 0 ${box_size} 0 ${box_size} 0 ${box_size}
region 			bigbox block 0 100 0 ${box_size} 0 ${box_size}
region 			bigbox block 0 100 0 100 0 ${box_size}
region 			bigbox block 0 100 0 100 0 100
create_box 		1 bigbox
Created orthogonal box = (0.0000000 0.0000000 0.0000000) to (100.00000 100.00000 100.00000)
  1 by 1 by 1 MPI processor grid

#==================Atoms====================
region 			safezone block 6 9 6 9 6 9 units box
create_atoms 	1 random ${N} ${seed} safezone
create_atoms 	1 random 18 ${seed} safezone
create_atoms 	1 random 18 625000 safezone
Created 18 atoms
  using lattice units in orthogonal box = (0.0000000 0.0000000 0.0000000) to (100.00000 100.00000 100.00000)
  create_atoms CPU = 0.002 seconds
mass 			* 12.01


#==========Velocity initialization==========
velocity 		all create 0.0000001 1563967 rot yes dist gaussian

#======Pair style for atom interactions=============
pair_style 		rebo
pair_coeff 		* * CH.rebo C
Reading rebo potential file CH.rebo with DATE: 2018-7-3

#==============Neighbor selection===================
neighbor 		0.3 bin
neigh_modify 	every 1 delay 0 check yes


#=====================Timestep======================
timestep 		${timestep}
timestep 		0.0001

#===============Define dump command=================
dump 			1 all cfg 100000 ./dump/dump.tensile_*.cfg mass type xs ys zs vx vy vz id

#========System temperature printing info===========
thermo_style 	custom step temp etotal epair pe ke
thermo 			${iexport}	# 1'000'000
thermo 			1000	


#====================CRC Cycle======================

#=============Condensation et chauffe===============
fix 			1 all nve
fix 			2 all temp/berendsen 0.0 ${tempchauf} ${Tdamp}
fix 			2 all temp/berendsen 0.0 3000 ${Tdamp}
fix 			2 all temp/berendsen 0.0 3000 0.001
fix             3 all momentum 1 linear 1 1 1 angular rescale

run 			${iter}
run 			1000000
Neighbor list info ...
  update every 1 steps, delay 0 steps, check yes
  max neighbors/atom: 2000, page size: 100000
  master list distance cutoff = 6.3
  ghost atom cutoff = 6.3
  binsize = 3.15, bins = 32 32 32
  1 neighbor lists, perpetual/occasional/extra = 1 0 0
  (1) pair rebo, perpetual
      attributes: full, newton on, ghost
      pair build: full/bin/ghost
      stencil: full/ghost/bin/3d
      bin: standard
Per MPI rank memory allocation (min/avg/max) = 5.320 | 5.320 | 5.320 Mbytes
Step Temp TotEng E_pair PotEng KinEng 
       0        1e-07    9823.5674    9823.5674    9823.5674 2.1974225e-10 
    1000    14.324034    -64.32367   -64.355146   -64.355146  0.031475954 
    2000     33.10257   -69.693831   -69.766571   -69.766571   0.07274033 
    3000     10.90649   -71.701852   -71.725818   -71.725818  0.023966165 
    4000    13.233625   -72.039243   -72.068323   -72.068323  0.029079866 
    5000    233.66133   -75.655021   -76.168474   -76.168474   0.51345266 
    6000    19.499867   -78.522615   -78.565465   -78.565465  0.042849446 
    7000    21.872761   -78.755619   -78.803683   -78.803683  0.048063697 
    8000     24.91145   -78.970887   -79.025628   -79.025628  0.054740979 
    9000    27.818856   -79.193456   -79.254586   -79.254586  0.061129779 
   10000    30.662595     -79.3743   -79.441678   -79.441678  0.067378675 
   11000    33.533136   -79.528991   -79.602677   -79.602677  0.073686466 
   12000    36.255199   -79.634752    -79.71442    -79.71442   0.07966799 
   13000    39.035562   -79.668965   -79.754742   -79.754742  0.085777621 
   14000    41.859595    -79.65808   -79.750063   -79.750063  0.091983215 
   15000    44.507207   -79.576445   -79.674246   -79.674246  0.097801137 
   16000    47.206244   -79.422545   -79.526277   -79.526277   0.10373206 
   17000    50.440974   -79.267312   -79.378153   -79.378153   0.11084013 
   18000    54.650001   -79.256955   -79.377044   -79.377044   0.12008914 
   19000    55.934997   -80.335025   -80.457938   -80.457938   0.12291282 
   20000    58.261186   -80.537976   -80.666001   -80.666001   0.12802444 
   21000    65.185698   -80.604372   -80.747613   -80.747613   0.14324052 
   22000    64.905482   -80.529337   -80.671961   -80.671961   0.14262476 
   23000    68.992017   -80.461556   -80.613161   -80.613161   0.15160461 
   24000    71.924351    -80.37092   -80.528968   -80.528968   0.15804818 
   25000    73.727611   -80.436219    -80.59823    -80.59823   0.16201071 
   26000    77.352169   -80.496565    -80.66654    -80.66654   0.16997539 
   27000    78.651825   -80.422593   -80.595424   -80.595424   0.17283129 
   28000    84.157417   -80.391347   -80.576276   -80.576276    0.1849294 
   29000    86.873114   -80.468854   -80.659751   -80.659751   0.19089693 
   30000    91.011497   -80.388257   -80.588247   -80.588247   0.19999071 
   31000    93.037315   -80.301583   -80.506025   -80.506025   0.20444229 
   32000    96.506902   -80.295842   -80.507908   -80.507908   0.21206644 
   33000    100.02555    -80.41074   -80.630538   -80.630538   0.21979839 
   34000    101.81358   -80.467572   -80.691299   -80.691299   0.22372745 
   35000    103.15489   -80.378569   -80.605244   -80.605244   0.22667487 
   36000    104.19786   -80.099227   -80.328194   -80.328194   0.22896671 
   37000    109.63113   -80.046666   -80.287572   -80.287572   0.24090591 
   38000     113.0773   -80.325445   -80.573924   -80.573924   0.24847859 
   39000    118.17343   -80.441327   -80.701004   -80.701004   0.25967695 
   40000    121.69143   -80.315788   -80.583195   -80.583195   0.26740748 
   41000     122.4267   -80.052522   -80.321545   -80.321545   0.26902318 
   42000    127.07853   -79.859568   -80.138814   -80.138814   0.27924521 
   43000    127.35933    -80.19679   -80.476652   -80.476652   0.27986225 
   44000    131.54703    -80.39426   -80.683324   -80.683324   0.28906441 
   45000    134.87385   -80.281282   -80.577657   -80.577657   0.29637482 
   46000    137.35817    -80.14852   -80.450354   -80.450354   0.30183392 
   47000    139.70882   -80.118039   -80.425038   -80.425038   0.30699929 
   48000    142.09982   -80.132314   -80.444568   -80.444568   0.31225333 
   49000    145.99452   -80.238636   -80.559448   -80.559448   0.32081164 
   50000    147.84667   -80.211841   -80.536722   -80.536722    0.3248816 
   51000    153.20341   -80.032104   -80.368757   -80.368757   0.33665263 
   52000    158.03766   -80.206839   -80.554114   -80.554114    0.3472755 
   53000    159.06774    -80.21664    -80.56618    -80.56618   0.34953903 
   54000    158.49177   -80.087111   -80.435384   -80.435384   0.34827337 
   55000    161.39582   -79.997191   -80.351846   -80.351846   0.35465481 
   56000    170.84597   -80.124037   -80.499458   -80.499458   0.37542078 
   57000    168.10853   -80.171242   -80.540647   -80.540647   0.36940545 
   58000    175.23079   -79.994297   -80.379353   -80.379353   0.38505607 
   59000    182.73401   -79.530719   -79.932263   -79.932263   0.40154381 
   60000    183.22503   -79.789106   -80.191729   -80.191729    0.4026228 
   61000    184.36689   -80.104249    -80.50938    -80.50938   0.40513195 
   62000    184.02399   -80.149207   -80.553586   -80.553586   0.40437845 
   63000    189.74907   -79.956587   -80.373546   -80.373546   0.41695887 
   64000    190.65317   -79.942208   -80.361154   -80.361154   0.41894555 
   65000     197.4843   -79.903681   -80.337637   -80.337637   0.43395643 
   66000    198.74806   -79.991987   -80.428721   -80.428721   0.43673345 
   67000    201.89991   -79.868621    -80.31228    -80.31228   0.44365941 
   68000    202.20391   -79.984979   -80.429307   -80.429307   0.44432742 
   69000    208.94695   -80.038826   -80.497971   -80.497971   0.45914471 
   70000    210.79118   -79.863628   -80.326825   -80.326825   0.46319728 
   71000    213.60318   -79.788358   -80.257734   -80.257734   0.46937642 
   72000    216.85013   -79.659044   -80.135556   -80.135556   0.47651135 
   73000    222.14942   -79.884706   -80.372862   -80.372862   0.48815613 
   74000    220.58947   -80.072177   -80.556906   -80.556906   0.48472826 
   75000    223.84862   -79.802894   -80.294784   -80.294784   0.49188999 
   76000    229.92449   -79.481458     -79.9867     -79.9867   0.50524124 
   77000     228.8483   -79.311557   -79.814434   -79.814434   0.50287639 
   78000    232.58756   -79.693196   -80.204289   -80.204289   0.51109313 
   79000    235.16937   -79.980907   -80.497673   -80.497673   0.51676646 
   80000    237.62211    -80.05918   -80.581336   -80.581336   0.52215616 
   81000    242.76862    -79.66094   -80.194405   -80.194405   0.53346522 
   82000    246.30819   -79.559388   -80.100632   -80.100632   0.54124315 
   83000    245.44258   -79.879802   -80.419143   -80.419143   0.53934103 
   84000    248.52862   -79.863931   -80.410054   -80.410054   0.54612236 
   85000    265.72499   -79.476337   -80.060247   -80.060247   0.58391006 
   86000    256.30432   -79.538667   -80.101875   -80.101875   0.56320886 
   87000    258.51493   -79.514242   -80.082309   -80.082309   0.56806652 
   88000    268.59335   -79.801284   -80.391497   -80.391497   0.59021307 
   89000    271.19215   -79.847897   -80.443821   -80.443821   0.59592373 
   90000    257.88079   -79.353442   -79.920115   -79.920115   0.56667305 
   91000    279.54339   -79.023947   -79.638222   -79.638222   0.61427493 
   92000    274.20912    -79.60146   -80.204014   -80.204014   0.60255328 
   93000    280.43374   -79.995804   -80.612035   -80.612035    0.6162314 
   94000    275.89273   -79.720897    -80.32715    -80.32715   0.60625288 
   95000    276.31879   -78.815375   -79.422564   -79.422564   0.60718913 
   96000    294.78805   -79.245903   -79.893677   -79.893677   0.64777389 
   97000    291.57406   -79.925585   -80.566296   -80.566296   0.64071138 
   98000    299.52922   -79.890791   -80.548983   -80.548983   0.65819223 
   99000    295.59909   -79.571139   -80.220695   -80.220695   0.64955609 
  100000    301.09398   -79.702314   -80.363945   -80.363945   0.66163067 
  101000    300.44795   -79.666882   -80.327093   -80.327093   0.66021107 
  102000    309.97138    -79.78842   -80.469558   -80.469558   0.68113808 
  103000    307.89714   -79.193095   -79.869676   -79.869676    0.6765801 
  104000    333.62004   -80.533751   -81.266855   -81.266855   0.73310417 
  105000    314.75765   -81.635558   -82.327213   -82.327213   0.69165553 
  106000    321.23228   -81.598317     -82.3042     -82.3042   0.70588302 
  107000    321.79053   -81.565076   -82.272185   -82.272185   0.70710974 
  108000    334.10139   -81.233942   -81.968104   -81.968104    0.7341619 
  109000    318.87628   -81.205032   -81.905738   -81.905738    0.7007059 
  110000    336.69091   -81.526614   -82.266466   -82.266466   0.73985216 
  111000    321.42393   -81.650407   -82.356711   -82.356711   0.70630418 
  112000    326.17573   -81.165025   -81.881771   -81.881771   0.71674587 
  113000    340.80794   -80.358928   -81.107827   -81.107827   0.74889903 
  114000    333.98611   -81.236133   -81.970042   -81.970042   0.73390858 
  115000    344.10859   -81.557586   -82.313738   -82.313738   0.75615195 
  116000    349.69765    -81.41155   -82.179983   -82.179983   0.76843347 
  117000    344.26731    -81.14422   -81.900721   -81.900721   0.75650073 
  118000    352.28472   -81.171236   -81.945354   -81.945354   0.77411836 
  119000    361.38696   -81.023069   -81.817189   -81.817189   0.79411983 
  120000    381.32349   -81.434632   -82.272561   -82.272561   0.83792881 
  121000    339.44082   -80.775666    -81.52156    -81.52156   0.74589489 
  122000    376.89089   -81.014403   -81.842592   -81.842592   0.82818852 
  123000     374.2209   -81.090764   -81.913085   -81.913085   0.82232142 
  124000    376.99115   -81.243067   -82.071476   -82.071476   0.82840882 
  125000    374.31949   -81.131779   -81.954317   -81.954317   0.82253806 
  126000    365.53385   -81.316222   -82.119454   -82.119454    0.8032323 
  127000    385.56806   -80.544458   -81.391714   -81.391714   0.84725593 
  128000      371.686   -80.392306   -81.209057   -81.209057   0.81675117 
  129000    389.95449   -81.239224   -82.096119   -82.096119   0.85689476 
  130000    402.45821   -81.289192   -82.173563   -82.173563   0.88437072 
  131000    382.11966   -80.948398   -81.788076   -81.788076   0.83967833 
  132000    377.93666   -81.014096   -81.844582   -81.844582    0.8304865 
  133000    402.94014   -81.136026   -82.021456   -82.021456   0.88542971 
  134000    394.17117    -80.65848   -81.524641   -81.524641   0.86616058 
  135000    408.39256   -81.006831   -81.904242   -81.904242   0.89741098 
  136000    397.58212   -81.299409   -82.173065   -82.173065   0.87365588 
  137000    391.46136   -80.909081   -81.769287   -81.769287   0.86020599 
  138000    409.43693   -80.482066   -81.381772   -81.381772    0.8997059 
  139000    418.11822   -81.015893   -81.934676   -81.934676   0.91878238 
  140000    410.75497   -81.294174   -82.196776   -82.196776    0.9026022 
  141000    421.07127   -80.739784   -81.665055   -81.665055   0.92527146 
  142000    431.75358   -80.819248   -81.767993   -81.767993   0.94874501 
  143000    432.56844   -80.831484   -81.782019   -81.782019    0.9505356 
  144000     430.0708   -80.966592   -81.911639   -81.911639   0.94504723 
  145000    440.08043   -81.374212   -82.341255   -82.341255   0.96704263 
  146000    414.14254    -80.87689   -81.786936   -81.786936   0.91004613 
  147000    439.38299   -80.632716   -81.598226   -81.598226   0.96551005 
  148000     442.4699    -80.74769   -81.719983   -81.719983   0.97229329 
  149000    456.95957   -80.846865   -81.850998   -81.850998    1.0041332 
  150000    459.66194   -80.297386   -81.307457   -81.307457    1.0100715 
  151000    443.48172   -80.842888   -81.817405   -81.817405    0.9745167 
  152000    462.76236   -81.199631   -82.216516   -82.216516    1.0168844 
  153000    460.00933   -81.074776   -82.085611   -82.085611    1.0108348 
  154000      462.592   -80.598244   -81.614754   -81.614754      1.01651 
  155000     491.4281   -80.215804   -81.295679   -81.295679    1.0798752 
  156000    468.95997   -80.600698   -81.631201   -81.631201    1.0305032 
  157000      470.353   -81.121473   -82.155037   -82.155037    1.0335642 
  158000     458.7089   -80.877764   -81.885741   -81.885741    1.0079772 
  159000    450.58655   -80.857899   -81.848028   -81.848028     0.990129 
  160000    484.31183   -80.653499   -81.717737   -81.717737    1.0642377 
  161000    476.91311   -80.056841    -81.10482    -81.10482    1.0479796 
  162000    498.89813   -80.739471   -81.835761   -81.835761      1.09629 
  163000    491.63775   -81.101486   -82.181821   -82.181821    1.0803358 
  164000    491.51848   -80.993789   -82.073862   -82.073862    1.0800737 
  165000     496.9697   -80.928061   -82.020113   -82.020113    1.0920524 
  166000    496.31888   -80.312264   -81.402886   -81.402886    1.0906223 
  167000    512.61349   -80.291677   -81.418106   -81.418106    1.1264284 
  168000    511.68867   -80.897979   -82.022375   -82.022375    1.1243962 
  169000    521.22665   -80.908516   -82.053871   -82.053871    1.1453551 
  170000    512.84873    -80.59058   -81.717525   -81.717525    1.1269453 
  171000    523.13369   -80.580148   -81.729694   -81.729694    1.1495457 
  172000     533.4801   -80.419583   -81.591864   -81.591864    1.1722811 
  173000    526.69033   -80.904743   -82.062104   -82.062104    1.1573612 
  174000    539.40446   -81.047647   -82.232947   -82.232947    1.1852995 
  175000    525.87453   -80.706393   -81.861962   -81.861962    1.1555685 
  176000    526.33327   -80.421661   -81.578237   -81.578237    1.1565766 
  177000     540.9674   -80.814559   -82.003293   -82.003293    1.1887339 
  178000    544.96716   -80.712007    -81.90953    -81.90953    1.1975231 
  179000    540.59035   -80.827096   -82.015001   -82.015001    1.1879054 
  180000    551.10757   -80.404598   -81.615614   -81.615614    1.2110161 
  181000    550.44264   -80.352486   -81.562041   -81.562041     1.209555 
  182000    546.04586   -80.663305   -81.863198   -81.863198    1.1998934 
  183000    543.24018   -81.012618   -82.206346   -82.206346    1.1937282 
  184000     550.1515    -80.72515   -81.934065   -81.934065    1.2089153 
  185000     552.1497   -80.635879   -81.849186   -81.849186    1.2133061 
  186000    558.01826    -80.54988   -81.776081   -81.776081    1.2262019 
  187000    562.78909     -80.7055   -81.942186   -81.942186    1.2366854 
  188000    565.38432    -81.00013   -82.242518   -82.242518    1.2423882 
  189000    564.40509   -80.381941   -81.622177   -81.622177    1.2402364 
  190000     571.9513    -80.62794   -81.884758   -81.884758    1.2568186 
  191000    581.78029   -80.732917   -82.011334   -82.011334    1.2784171 
  192000    556.14513   -80.352788   -81.574873   -81.574873    1.2220858 
  193000    577.60821   -80.798563   -82.067812   -82.067812    1.2692493 
  194000    578.26175   -80.592473   -81.863158   -81.863158    1.2706854 
  195000    588.45276    -80.33627    -81.62935    -81.62935    1.2930793 
  196000    588.16066   -80.676347   -81.968785   -81.968785    1.2924374 
  197000    592.58191   -81.077966   -82.380119   -82.380119    1.3021528 
  198000    585.99678   -80.827311   -82.114993   -82.114993    1.2876825 
  199000    603.90726   -80.665542   -81.992582   -81.992582    1.3270394 
  200000    593.55238    -80.68971   -81.993995   -81.993995    1.3042853 
  201000    605.21994   -80.477684   -81.807608   -81.807608    1.3299239 
  202000    599.40256   -80.768524   -82.085664   -82.085664    1.3171406 
  203000     609.9522   -80.783851   -82.124174   -82.124174    1.3403227 
  204000    618.22848   -80.505822   -81.864331   -81.864331    1.3585091 
  205000    613.11834   -80.685512   -82.032792   -82.032792      1.34728 
  206000    601.40401   -80.874939   -82.196478   -82.196478    1.3215387 
  207000    618.75874   -80.444581   -81.804255   -81.804255    1.3596744 
  208000    642.36975   -80.629329   -82.040887   -82.040887    1.4115577 
  209000    605.44998   -80.600856   -81.931285   -81.931285    1.3304294 
  210000    617.94065   -80.351562   -81.709439   -81.709439    1.3578767 
  211000    625.58162   -80.685901   -82.060569   -82.060569    1.3746671 
  212000    625.65152   -80.712128   -82.086949   -82.086949    1.3748207 
  213000    640.27934    -80.15382   -81.560784   -81.560784    1.4069642 
  214000     644.9027   -80.813716    -82.23084    -82.23084    1.4171237 
  215000     655.2039   -80.723539   -82.163299   -82.163299    1.4397598 
  216000    645.80473   -80.387023   -81.806129   -81.806129    1.4191058 
  217000    660.43357   -80.726615   -82.177866   -82.177866    1.4512516 
  218000    650.86208    -80.77522   -82.205439   -82.205439     1.430219 
  219000     647.5298    -80.42813   -81.851027   -81.851027    1.4228965 
  220000    660.21132   -80.819514   -82.270278   -82.270278    1.4507632 
  221000     662.2018   -80.605689   -82.060826   -82.060826    1.4551371 
  222000    670.18828   -80.596906   -82.069593   -82.069593    1.4726868 
  223000    659.09311   -80.751735   -82.200041   -82.200041     1.448306 
  224000    665.84138   -80.589325    -82.05246    -82.05246    1.4631348 
  225000    671.85595   -80.661547   -82.137898   -82.137898    1.4763514 
  226000     671.1557    -80.49559   -81.970403   -81.970403    1.4748126 
  227000    691.67132   -80.697151   -82.217045   -82.217045    1.5198941 
  228000    679.10696   -80.425603   -81.917888   -81.917888    1.4922849 
  229000    689.43024   -80.669082   -82.184051   -82.184051    1.5149695 
  230000    691.14465   -80.811855   -82.330592   -82.330592    1.5187368 
  231000     671.5022   -80.551961   -82.027535   -82.027535     1.475574 
  232000    682.85087    -80.62996   -82.130472   -82.130472    1.5005118 
  233000    686.45316   -80.499856   -82.008284   -82.008284    1.5084276 
  234000    688.67847   -80.691644   -82.204962   -82.204962    1.5133175 
  235000    711.34375   -80.715124   -82.278246   -82.278246    1.5631227 
  236000    719.79398   -80.571284   -82.152975   -82.152975    1.5816915 
  237000    708.47625   -80.458814   -82.015635   -82.015635    1.5568216 
  238000    719.86343   -80.770622   -82.352466   -82.352466    1.5818441 
  239000    712.47694   -80.676952   -82.242565   -82.242565    1.5656128 
  240000    729.48384   -80.592281   -82.195266   -82.195266    1.6029842 
  241000    723.39667   -80.604396   -82.194004   -82.194004    1.5896081 
  242000    713.87517   -80.613306   -82.181991   -82.181991    1.5686853 
  243000    735.03593   -80.698373   -82.313557   -82.313557    1.6151845 
  244000    744.28735   -80.773759   -82.409273   -82.409273    1.6355137 
  245000    734.63695    -80.69955   -82.313858   -82.313858    1.6143077 
  246000    737.40752   -80.666214   -82.286609   -82.286609    1.6203959 
  247000    745.46581   -80.733133   -82.371236   -82.371236    1.6381033 
  248000    743.82855    -80.75412   -82.388625   -82.388625    1.6345056 
  249000    747.91665   -80.426677   -82.070165   -82.070165    1.6434889 
  250000    737.12558   -80.492171   -82.111947   -82.111947    1.6197763 
  251000    747.67213   -80.687788   -82.330739   -82.330739    1.6429515 
  252000    750.63394   -80.544639   -82.194099   -82.194099    1.6494599 
  253000    764.07151   -80.564566   -82.243554   -82.243554    1.6789879 
  254000    760.19817    -80.60572   -82.276197   -82.276197    1.6704765 
  255000    766.07377   -80.394436   -82.077824   -82.077824    1.6833877 
  256000    764.77036   -80.547438   -82.227962   -82.227962    1.6805236 
  257000    775.31985   -80.678315    -82.38202    -82.38202    1.7037053 
  258000    770.97898   -80.507703    -82.20187    -82.20187    1.6941665 
  259000    781.32503   -80.519015   -82.235916   -82.235916    1.7169012 
  260000    764.21165   -80.549534    -82.22883    -82.22883    1.6792958 
  261000    776.24744    -80.39599   -82.101734   -82.101734    1.7057436 
  262000     787.4971   -80.530484   -82.260947   -82.260947    1.7304638 
  263000      790.222    -80.57949   -82.315942   -82.315942    1.7364516 
  264000    793.02205   -80.589773   -82.332377   -82.332377    1.7426045 
  265000     797.9666   -80.510373   -82.263843   -82.263843    1.7534697 
  266000    807.77991   -80.589638   -82.364672   -82.364672    1.7750337 
  267000    799.80212   -80.503217   -82.260721   -82.260721    1.7575031 
  268000    795.37681   -80.395977   -82.143756   -82.143756    1.7477789 
  269000     812.2582   -80.598536    -82.38341    -82.38341    1.7848744 
  270000    808.89245   -80.595798   -82.373277   -82.373277    1.7774784 
  271000    801.87598   -80.369547   -82.131607   -82.131607    1.7620603 
  272000    802.77916   -80.434362   -82.198407   -82.198407     1.764045 
  273000    822.76108   -80.548842   -82.356796   -82.356796    1.8079537 
  274000    830.84666   -80.625699    -82.45142    -82.45142    1.8257211 
  275000    819.78156   -80.466325   -82.267732   -82.267732    1.8014064 
  276000    821.86742   -80.410152   -82.216142   -82.216142    1.8059899 
  277000    838.32157   -80.492265   -82.334411   -82.334411    1.8421466 
  278000    831.60578   -80.619445   -82.446834   -82.446834    1.8273892 
  279000    832.80654   -80.451544   -82.281572   -82.281572    1.8300278 
  280000    841.29689   -80.292935    -82.14162    -82.14162    1.8486847 
  281000     838.0404     -80.3281   -82.169629   -82.169629    1.8415288 
  282000    850.23924   -80.588914   -82.457249   -82.457249    1.8683348 
  283000    841.87352   -80.641985   -82.491936   -82.491936    1.8499518 
  284000    858.06401   -80.425656   -82.311186   -82.311186    1.8855291 
  285000    851.52901   -80.436014   -82.307183   -82.307183     1.871169 
  286000    857.21083   -80.555155   -82.438809   -82.438809    1.8836543 
  287000    869.07648   -80.593324   -82.503052   -82.503052    1.9097282 
  288000    863.02711   -80.430498   -82.326933   -82.326933    1.8964352 
  289000    865.61303    -80.26866   -82.170777   -82.170777    1.9021175 
  290000    876.86063   -80.380455   -82.307288   -82.307288    1.9268333 
  291000    872.66069   -80.479811   -82.397415   -82.397415    1.9176042 
  292000    866.18216   -80.544631      -82.448      -82.448    1.9033681 
  293000    884.67805   -80.458844   -82.402856   -82.402856    1.9440114 
  294000    874.75204   -80.541026   -82.463226   -82.463226    1.9221998 
  295000    886.22494   -80.498556   -82.445966   -82.445966    1.9474106 
  296000    884.99169    -80.38746    -82.33216    -82.33216    1.9447006 
  297000    896.81838   -80.382551    -82.35324    -82.35324    1.9706889 
  298000    888.37247   -80.347468   -82.299598   -82.299598    1.9521296 
  299000    899.44524   -80.421714   -82.398175   -82.398175    1.9764612 
  300000    901.81823   -80.500507   -82.482182   -82.482182    1.9816756 
  301000    901.62195   -80.404451   -82.385695   -82.385695    1.9812443 
  302000    899.71246   -80.070164   -82.047213   -82.047213    1.9770484 
  303000    906.10639   -80.331548   -82.322647   -82.322647    1.9910985 
  304000     918.0194   -80.438772   -82.456048   -82.456048    2.0172764 
  305000    911.42737   -80.477167   -82.479958   -82.479958     2.002791 
  306000    917.36341   -80.328939   -82.344774   -82.344774     2.015835 
  307000    920.19657   -80.155624   -82.177685   -82.177685    2.0220606 
  308000    925.37852   -80.427284   -82.460732   -82.460732    2.0334476 
  309000    927.22376   -80.484098   -82.521601   -82.521601    2.0375023 
  310000    929.83928   -80.243573   -82.286823   -82.286823    2.0432497 
  311000    931.47055   -80.213265   -82.260099   -82.260099    2.0468343 
  312000     937.2125   -80.212915   -82.272367   -82.272367    2.0594518 
  313000    938.20021   -80.380941   -82.442563   -82.442563    2.0616222 
  314000    950.85511    -80.33365    -82.42308    -82.42308    2.0894304 
  315000    948.56721   -80.239578   -82.323981   -82.323981    2.0844029 
  316000    949.04504   -80.292205   -82.377658   -82.377658    2.0854529 
  317000    954.62629   -80.410048   -82.507765   -82.507765    2.0977173 
  318000    952.86518    -80.36727   -82.461117   -82.461117    2.0938474 
  319000    964.29285   -80.242676   -82.361635   -82.361635    2.1189588 
  320000    960.49971   -80.118802   -82.229425   -82.229425    2.1106236 
  321000    963.61451   -80.139642   -82.257111   -82.257111    2.1174682 
  322000    974.11147   -80.328596    -82.46913    -82.46913    2.1405344 
  323000    972.61861   -80.315714   -82.452968   -82.452968     2.137254 
  324000    969.15584   -80.144566   -82.274211   -82.274211    2.1296448 
  325000    976.01961   -80.235241   -82.379968   -82.379968    2.1447274 
  326000    974.26982   -80.345791   -82.486673   -82.486673    2.1408824 
  327000    983.32845   -80.166345   -82.327133   -82.327133     2.160788 
  328000    982.92536    -80.08684   -82.246742   -82.246742    2.1599023 
  329000    988.23055   -80.231786   -82.403346   -82.403346      2.17156 
  330000    988.44983   -80.174347   -82.346389   -82.346389    2.1720419 
  331000    991.45365   -80.211311   -82.389954   -82.389954    2.1786425 
  332000    1002.6641   -80.234955   -82.438232   -82.438232    2.2032766 
  333000    993.39167   -80.098643   -82.281545   -82.281545    2.1829012 
  334000    1000.1617   -80.103936   -82.301713   -82.301713    2.1977777 
  335000    1005.6721   -80.260842   -82.470728   -82.470728    2.2098864 
  336000    1006.2958   -80.191021   -82.402278   -82.402278    2.2112569 
  337000    1012.6971   -80.139718   -82.365041   -82.365041    2.2253233 
  338000    1012.0472   -80.011536   -82.235431   -82.235431    2.2238953 
  339000    1022.0627   -80.060146   -82.306049   -82.306049    2.2459036 
  340000    1019.4538   -80.123408   -82.363578   -82.363578    2.2401706 
  341000    1023.2286   -80.138918   -82.387383   -82.387383    2.2484655 
  342000    1032.8144   -80.095646   -82.365176   -82.365176    2.2695295 
  343000    1028.9601   -80.130262   -82.391322   -82.391322    2.2610599 
  344000    1023.4337   -80.186292   -82.435208   -82.435208    2.2489162 
  345000    1026.1627   -80.086037    -82.34095    -82.34095     2.254913 
  346000    1040.2441   -80.095659   -82.381515   -82.381515    2.2858558 
  347000    1043.0353   -80.188336   -82.480325   -82.480325    2.2919892 
  348000     1031.558   -80.194494   -82.461263   -82.461263    2.2667687 
  349000    1037.1632   -80.111694    -82.39078    -82.39078    2.2790856 
  350000    1048.1343   -80.021257   -82.324451   -82.324451    2.3031937 
  351000     1058.764   -79.991577   -82.318129   -82.318129    2.3265518 
  352000    1049.3358   -80.159588   -82.465422   -82.465422     2.305834 
  353000    1054.1553   -80.109212   -82.425637   -82.425637    2.3164246 
  354000    1069.1757   -80.003732   -82.353163   -82.353163    2.3494307 
  355000    1068.0377    -80.14722    -82.49415    -82.49415    2.3469301 
  356000    1069.5881    -80.08209   -82.432427   -82.432427    2.3503369 
  357000     1075.758   -80.050042   -82.413937   -82.413937    2.3638948 
  358000    1078.5631   -80.176969   -82.547028   -82.547028    2.3700589 
  359000    1079.3069   -80.006143   -82.377837   -82.377837    2.3716933 
  360000    1071.8922   -80.041344   -82.396744   -82.396744    2.3553999 
  361000    1083.4383   -80.024662   -82.405434   -82.405434    2.3807716 
  362000    1082.2828    -79.94573   -82.323962   -82.323962    2.3782325 
  363000    1086.9253   -80.094782   -82.483216   -82.483216    2.3884341 
  364000    1088.9061     -80.0334   -82.426187   -82.426187    2.3927867 
  365000    1093.6434   -80.006786   -82.409982   -82.409982    2.4031967 
  366000    1104.2972   -80.024618   -82.451226   -82.451226    2.4266074 
  367000    1101.6281   -80.114947    -82.53569    -82.53569    2.4207422 
  368000     1102.309   -79.943417   -82.365656   -82.365656    2.4222386 
  369000    1107.8006   -79.875097   -82.309403   -82.309403    2.4343059 
  370000    1102.1518   -80.023971   -82.445864   -82.445864    2.4218931 
  371000    1113.5746   -80.146601   -82.593594   -82.593594    2.4469937 
  372000    1122.6344   -79.966979   -82.433881   -82.433881    2.4669021 
  373000     1113.874   -80.038577   -82.486229   -82.486229    2.4476517 
  374000    1115.6615   -80.072634   -82.524214   -82.524214    2.4515797 
  375000    1122.7571   -79.865688   -82.332859   -82.332859    2.4671718 
  376000    1133.4974   -79.903612   -82.394385   -82.394385    2.4907727 
  377000    1122.3234   -79.932221    -82.39844    -82.39844    2.4662186 
  378000    1132.9859   -79.919582   -82.409231   -82.409231    2.4896486 
  379000    1134.7956   -80.018453   -82.512079   -82.512079    2.4936254 
  380000    1137.3061   -79.992308    -82.49145    -82.49145    2.4991419 
  381000    1139.5821   -79.928258   -82.432401   -82.432401    2.5041433 
  382000    1147.2331   -79.858126   -82.379082   -82.379082    2.5209557 
  383000    1150.3599   -79.975829   -82.503656   -82.503656    2.5278267 
  384000    1149.5685   -79.993167   -82.519255   -82.519255    2.5260877 
  385000    1156.2958   -79.807915   -82.348786   -82.348786    2.5408704 
  386000    1157.0292   -79.872017   -82.414499   -82.414499     2.542482 
  387000    1156.8177   -80.035292   -82.577309   -82.577309    2.5420172 
  388000    1172.0117   -79.850969   -82.426373   -82.426373    2.5754049 
  389000    1166.6425   -79.861102   -82.424709   -82.424709    2.5636065 
  390000    1172.6857   -79.868145    -82.44503    -82.44503    2.5768859 
  391000    1170.9733   -79.900009   -82.473132   -82.473132    2.5731229 
  392000    1182.1273   -79.831406   -82.429039   -82.429039    2.5976331 
  393000    1178.6938   -79.846573   -82.436661   -82.436661    2.5900883 
  394000    1180.2506   -79.889463   -82.482973   -82.482973    2.5935092 
  395000    1179.8975   -79.850426    -82.44316    -82.44316    2.5927332 
  396000    1196.1541   -79.841838   -82.470294   -82.470294    2.6284559 
  397000    1189.4713   -79.753707   -82.367478   -82.367478    2.6137711 
  398000    1193.0654   -79.902924   -82.524593   -82.524593    2.6216687 
  399000    1198.5913   -79.732582   -82.366394   -82.366394    2.6338115 
  400000    1195.8617   -79.749395   -82.377208   -82.377208    2.6278133 
  401000     1211.932    -79.83532   -82.498447   -82.498447    2.6631266 
  402000    1200.5797   -79.839074   -82.477254   -82.477254    2.6381808 
  403000    1212.2944   -79.849824   -82.513747   -82.513747    2.6639229 
  404000    1214.0574   -79.831562   -82.499359   -82.499359    2.6677971 
  405000    1218.7271    -79.83472   -82.512778   -82.512778    2.6780582 
  406000    1209.9381   -79.754788   -82.413533   -82.413533    2.6587452 
  407000    1225.4179   -79.645537   -82.338298   -82.338298    2.6927608 
  408000    1227.9141   -79.740405   -82.438651   -82.438651     2.698246 
  409000     1227.582   -79.788588   -82.486104   -82.486104    2.6975163 
  410000    1227.2964   -79.815397   -82.512285   -82.512285    2.6968886 
  411000    1231.0309   -79.762532   -82.467627   -82.467627     2.705095 
  412000    1233.8452     -79.7202   -82.431479   -82.431479    2.7112791 
  413000    1235.8717     -79.7264   -82.442132   -82.442132    2.7157322 
  414000    1242.9255   -79.731125   -82.462357   -82.462357    2.7312324 
  415000    1241.5447   -79.605821    -82.33402    -82.33402    2.7281982 
  416000    1252.2403   -79.807218   -82.558919   -82.558919    2.7517009 
  417000    1252.6318   -79.717013   -82.469575   -82.469575    2.7525612 
  418000    1255.9847   -79.656262   -82.416191   -82.416191    2.7599291 
  419000    1252.9326   -79.791632   -82.544854   -82.544854    2.7532223 
  420000    1261.8776   -79.632276   -82.405155   -82.405155    2.7728782 
  421000    1264.8622   -79.727727   -82.507164   -82.507164    2.7794366 
  422000    1266.0465   -79.719395   -82.501434   -82.501434     2.782039 
  423000    1269.3671   -79.640988   -82.430323   -82.430323    2.7893357 
  424000    1270.7728   -79.677157   -82.469582   -82.469582    2.7924246 
  425000    1276.8644   -79.643933   -82.449744   -82.449744    2.8058105 
  426000    1275.7994   -79.621749    -82.42522    -82.42522    2.8034703 
  427000    1288.7991   -79.729733   -82.561769   -82.561769    2.8320362 
  428000    1280.0462   -79.613737   -82.426539   -82.426539    2.8128022 
  429000    1288.9235   -79.719732   -82.552041   -82.552041    2.8323094 
  430000    1284.6375   -79.693612   -82.516503   -82.516503    2.8228913 
  431000    1299.4592   -79.548028   -82.403489   -82.403489    2.8554609 
  432000    1288.5642   -79.649253   -82.480773   -82.480773    2.8315199 
  433000    1300.7059   -79.702362   -82.560563   -82.560563    2.8582005 
  434000    1305.1595   -79.663117   -82.531104   -82.531104    2.8679869 
  435000    1299.3846   -79.674305   -82.529602   -82.529602    2.8552968 
  436000    1310.8445   -79.598828   -82.479307   -82.479307    2.8804791 
  437000     1314.678   -79.533567    -82.42247    -82.42247    2.8889029 
  438000    1306.5791   -79.637287   -82.508393   -82.508393    2.8711062 
  439000    1322.3396    -79.61959   -82.525329   -82.525329    2.9057387 
  440000    1324.4902   -79.610036   -82.520501   -82.520501    2.9104646 
  441000     1319.959   -79.548307   -82.448814   -82.448814    2.9005075 
  442000    1325.2608   -79.597548   -82.509706   -82.509706    2.9121579 
  443000    1329.1996   -79.631637    -82.55245    -82.55245     2.920813 
  444000    1337.1976   -79.462941   -82.401329   -82.401329    2.9383881 
  445000     1338.279   -79.465894   -82.406658   -82.406658    2.9407644 
  446000    1335.8933   -79.687148    -82.62267    -82.62267    2.9355219 
  447000    1342.4275    -79.56246    -82.51234    -82.51234    2.9498804 
  448000    1339.5501   -79.465067   -82.408624   -82.408624    2.9435576 
  449000    1349.4827   -79.538416     -82.5038     -82.5038    2.9653837 
  450000      1347.12   -79.539826   -82.500018   -82.500018    2.9601917 
  451000    1350.1349   -79.547228   -82.514045   -82.514045    2.9668167 
  452000    1355.2226   -79.413534   -82.391531   -82.391531    2.9779965 
  453000    1360.1485   -79.461205   -82.450026   -82.450026     2.988821 
  454000    1364.3778    -79.56768   -82.565795   -82.565795    2.9981145 
  455000    1367.3939   -79.444369   -82.449111   -82.449111     3.004742 
  456000    1371.1861   -79.404118   -82.417193   -82.417193    3.0130752 
  457000    1373.3355    -79.51939   -82.537188   -82.537188    3.0177984 
  458000     1372.355   -79.486978   -82.502621   -82.502621    3.0156436 
  459000    1378.7926   -79.503487   -82.533277   -82.533277    3.0297898 
  460000    1378.5398   -79.462629   -82.491863   -82.491863    3.0292343 
  461000    1389.9652    -79.46972   -82.524061   -82.524061    3.0543408 
  462000    1387.0056   -79.416177   -82.464014   -82.464014    3.0478372 
  463000    1392.1589   -79.570851   -82.630012   -82.630012    3.0591612 
  464000    1392.4248   -79.470617   -82.530363   -82.530363    3.0597456 
  465000    1397.5582   -79.402777   -82.473803   -82.473803    3.0710257 
  466000    1398.3036   -79.393531   -82.466195   -82.466195    3.0726637 
  467000    1394.8405   -79.348713   -82.413767   -82.413767    3.0650538 
  468000    1407.2233    -79.38418   -82.476444   -82.476444    3.0922641 
  469000    1408.5408   -79.463589   -82.558748   -82.558748    3.0951593 
  470000    1410.8479   -79.432228   -82.532457   -82.532457    3.1002288 
  471000    1412.2652   -79.339657      -82.443      -82.443    3.1033432 
  472000    1417.7491   -79.342354   -82.457748   -82.457748    3.1153938 
  473000    1416.8091   -79.476711   -82.590039   -82.590039    3.1133281 
  474000     1423.516   -79.405177   -82.533243   -82.533243     3.128066 
  475000    1426.1957   -79.259609   -82.393563   -82.393563    3.1339545 
  476000     1433.008   -79.348539   -82.497463   -82.497463    3.1489239 
  477000    1426.6349    -79.43029   -82.565209   -82.565209    3.1349195 
  478000    1432.8348   -79.280743   -82.429287   -82.429287    3.1485434 
  479000    1437.7803   -79.318953   -82.478364   -82.478364    3.1594108 
  480000    1440.3302   -79.309141   -82.474154   -82.474154    3.1650138 
  481000     1446.346   -79.239668   -82.417901   -82.417901    3.1782333 
  482000    1444.9157   -79.391895   -82.566985   -82.566985    3.1750901 
  483000    1447.7076   -79.270795    -82.45202    -82.45202    3.1812253 
  484000     1456.108   -79.337529   -82.537213   -82.537213    3.1996844 
  485000    1458.5574   -79.279409   -82.484476   -82.484476    3.2050669 
  486000    1453.8226   -79.325768    -82.52043    -82.52043    3.1946624 
  487000    1462.5994   -79.218044   -82.431993   -82.431993    3.2139488 
  488000     1458.768    -79.26397     -82.4695     -82.4695    3.2055296 
  489000    1469.6161   -79.220914   -82.450281   -82.450281    3.2293674 
  490000    1467.5128   -79.329999   -82.554745   -82.554745    3.2247457 
  491000    1473.6175   -79.218661   -82.456821   -82.456821    3.2381603 
  492000    1471.5366   -79.222153   -82.455741   -82.455741    3.2335877 
  493000       1481.7   -79.256638   -82.512559   -82.512559    3.2559209 
  494000    1485.3809   -79.239847   -82.503856   -82.503856    3.2640093 
  495000    1490.7059   -79.282077   -82.557788   -82.557788    3.2757107 
  496000    1485.4076    -79.16994   -82.434008   -82.434008     3.264068 
  497000    1495.9862   -79.146564   -82.433878   -82.433878    3.2873137 
  498000     1491.502   -79.230501   -82.507961   -82.507961      3.27746 
  499000    1500.1899    -79.19833   -82.494881   -82.494881    3.2965511 
  500000    1503.8913   -79.206578   -82.511262   -82.511262    3.3046846 
  501000      1500.15   -79.296887    -82.59335    -82.59335    3.2964632 
  502000    1504.4909   -79.186472   -82.492474   -82.492474     3.306002 
  503000    1506.5313   -79.176644    -82.48713    -82.48713    3.3104856 
  504000    1515.9294    -79.20842   -82.539558   -82.539558    3.3311373 
  505000    1514.1165   -79.120177    -82.44733    -82.44733    3.3271536 
  506000    1516.8693    -79.21964   -82.552843   -82.552843    3.3332028 
  507000    1523.1845   -79.150066   -82.497146   -82.497146    3.3470797 
  508000    1526.7923   -79.189081   -82.544089   -82.544089    3.3550078 
  509000    1522.1758   -79.314008   -82.658871   -82.658871    3.3448633 
  510000    1531.1533   -79.121788   -82.486378   -82.486378    3.3645906 
  511000    1533.5079   -79.159618   -82.529383   -82.529383    3.3697646 
  512000    1535.6821   -79.134277    -82.50882    -82.50882    3.3745424 
  513000    1544.4699   -79.088543   -82.482396   -82.482396    3.3938528 
  514000    1543.2312   -79.098614   -82.489744   -82.489744    3.3911308 
  515000     1542.836   -79.196398    -82.58666    -82.58666    3.3902625 
  516000    1548.1896     -79.1064   -82.508426   -82.508426    3.4020266 
  517000    1553.7525   -79.163222   -82.577473   -82.577473    3.4142507 
  518000     1553.308   -79.129902   -82.543176   -82.543176    3.4132738 
  519000    1554.8043   -79.033361   -82.449923   -82.449923    3.4165618 
  520000    1562.7483   -79.077821   -82.511839   -82.511839    3.4340182 
  521000    1560.9478   -79.202294   -82.632356   -82.632356    3.4300617 
  522000     1560.231   -79.033455   -82.461941   -82.461941    3.4284866 
  523000    1573.8841   -79.108148   -82.566636   -82.566636    3.4584883 
  524000    1571.3439   -79.084765   -82.537672   -82.537672    3.4529065 
  525000    1575.4602    -78.93274   -82.394692   -82.394692    3.4619517 
  526000    1576.8722   -79.111097   -82.576152   -82.576152    3.4650544 
  527000    1584.3703    -79.07997   -82.561501   -82.561501    3.4815309 
  528000    1577.9541    -79.02182   -82.489252   -82.489252    3.4674318 
  529000    1589.9546   -79.060599   -82.554401   -82.554401    3.4938019 
  530000    1592.1503    -79.03379   -82.532417   -82.532417    3.4986268 
  531000    1595.4101    -78.96141     -82.4672     -82.4672      3.50579 
  532000    1592.7452   -79.030127   -82.530061   -82.530061    3.4999341 
  533000    1600.3833   -79.012643   -82.529361   -82.529361    3.5167182 
  534000    1604.0777   -79.015537   -82.540373   -82.540373    3.5248364 
  535000    1603.8245   -78.988983   -82.513263   -82.513263    3.5242801 
  536000    1609.4778   -79.087315   -82.624018   -82.624018    3.5367027 
  537000    1609.4648   -78.940661   -82.477335   -82.477335    3.5366742 
  538000    1606.7005   -79.041874   -82.572474   -82.572474    3.5305998 
  539000    1617.8875   -78.979577    -82.53476    -82.53476    3.5551823 
  540000    1619.3497   -78.896893   -82.455288   -82.455288    3.5583953 
  541000    1624.7995   -78.963395   -82.533766   -82.533766     3.570371 
  542000    1626.4119   -78.948386     -82.5223     -82.5223    3.5739141 
  543000    1629.5699   -78.900651   -82.481505   -82.481505    3.5808536 
  544000    1630.6618   -78.913572   -82.496825   -82.496825    3.5832528 
  545000    1638.1331   -78.963632   -82.563302   -82.563302    3.5996706 
  546000    1638.9224   -78.977928   -82.579333   -82.579333    3.6014049 
  547000    1638.2182   -78.819841   -82.419699   -82.419699    3.5998575 
  548000    1645.3288   -78.900638    -82.51612    -82.51612    3.6154824 
  549000    1645.5008   -78.910743   -82.526603   -82.526603    3.6158605 
  550000    1648.9684   -78.860538   -82.484018   -82.484018    3.6234801 
  551000    1653.1816   -78.906161   -82.538899   -82.538899    3.6327384 
  552000    1657.9475   -78.837461   -82.480672   -82.480672    3.6432111 
  553000    1655.0819   -78.843128   -82.480042   -82.480042    3.6369142 
  554000    1665.1282   -78.863219   -82.522209   -82.522209    3.6589902 
  555000    1665.9981   -78.843645   -82.504546   -82.504546    3.6609016 
  556000    1667.7964   -78.809538   -82.474392   -82.474392    3.6648534 
  557000    1668.6839   -78.854584   -82.521387   -82.521387    3.6668035 
  558000    1673.0506   -78.851015   -82.527414   -82.527414     3.676399 
  559000    1681.1068   -78.890504   -82.584606   -82.584606    3.6941019 
  560000     1678.504   -78.833845   -82.522227   -82.522227    3.6883823 
  561000    1685.1036   -78.770744   -82.473629   -82.473629    3.7028845 
  562000    1684.6762   -78.887241   -82.589186   -82.589186    3.7019454 
  563000    1686.4825   -78.765561   -82.471476   -82.471476    3.7059146 
  564000    1695.1488   -78.813781    -82.53874    -82.53874    3.7249582 
  565000    1698.7684   -78.802645   -82.535557   -82.535557    3.7329118 
  566000    1697.6763   -78.749597   -82.480109   -82.480109    3.7305121 
  567000    1699.3374   -78.809189   -82.543351   -82.543351    3.7341622 
  568000    1706.6015   -78.744941   -82.495065   -82.495065    3.7501244 
  569000    1708.0306   -78.771977   -82.525242   -82.525242    3.7532649 
  570000    1716.0841   -78.766803   -82.537765   -82.537765    3.7709619 
  571000    1715.0782   -78.734992   -82.503743   -82.503743    3.7687513 
  572000     1718.281   -78.769439   -82.545229   -82.545229    3.7757894 
  573000    1717.7537        -78.8   -82.574631   -82.574631    3.7746305 
  574000    1724.1534   -78.653981   -82.442674   -82.442674    3.7886934 
  575000    1731.3631   -78.694159   -82.498695   -82.498695    3.8045361 
  576000    1727.2883   -78.780439   -82.576021   -82.576021     3.795582 
  577000    1731.3407   -78.698402   -82.502889   -82.502889     3.804487 
  578000    1736.4633   -78.759084   -82.574828   -82.574828    3.8157435 
  579000    1735.7321    -78.75677   -82.570906   -82.570906    3.8141367 
  580000    1735.5112   -78.655079    -82.46873    -82.46873    3.8136514 
  581000    1741.0292   -78.728943    -82.55472    -82.55472    3.8257768 
  582000    1748.6438   -78.742903   -82.585412   -82.585412    3.8425091 
  583000    1745.3879    -78.63218   -82.467535   -82.467535    3.8353547 
  584000    1745.1641   -78.675212   -82.510075   -82.510075    3.8348627 
  585000    1751.2484   -78.648455   -82.496688   -82.496688    3.8482325 
  586000    1758.6721   -78.636376   -82.500921   -82.500921    3.8645455 
  587000    1765.6674   -78.624789   -82.504706   -82.504706    3.8799173 
  588000    1758.6096   -78.660732    -82.52514    -82.52514    3.8644083 
  589000    1773.3631   -78.640205   -82.537033   -82.537033     3.896828 
  590000    1768.4912    -78.68829   -82.574413   -82.574413    3.8861223 
  591000    1775.0282   -78.639023   -82.539509   -82.539509    3.9004868 
  592000    1785.6099   -78.579464   -82.503204   -82.503204    3.9237392 
  593000    1769.5463   -78.734093   -82.622534   -82.622534    3.8884408 
  594000    1780.8454   -78.619776   -82.533046   -82.533046    3.9132696 
  595000    1784.1067    -78.64337   -82.563806   -82.563806    3.9204361 
  596000    1778.0677   -78.652341   -82.559507   -82.559507    3.9071659 
  597000    1797.6382   -78.564044   -82.514215   -82.514215    3.9501706 
  598000    1792.8753   -78.616831   -82.556535   -82.556535    3.9397044 
  599000    1799.0452   -78.606347   -82.559609   -82.559609    3.9532623 
  600000    1797.4457   -78.528246   -82.477993   -82.477993    3.9497475 
  601000      1806.54   -78.610295   -82.580026   -82.580026    3.9697316 
  602000    1811.9308   -78.563206   -82.544784   -82.544784    3.9815774 
  603000    1807.6701   -78.575773   -82.547988   -82.547988    3.9722149 
  604000    1811.8849   -78.586384   -82.567861   -82.567861    3.9814765 
  605000    1819.8691   -78.546285   -82.545307   -82.545307    3.9990213 
  606000    1817.9754   -78.585022   -82.579882   -82.579882      3.99486 
  607000    1819.2818    -78.57772   -82.575451   -82.575451    3.9977307 
  608000     1823.063   -78.506332   -82.512371   -82.512371    4.0060396 
  609000    1825.3386   -78.574741   -82.585781   -82.585781      4.01104 
  610000    1835.5525   -78.529543   -82.563027   -82.563027    4.0334842 
  611000    1825.3606   -78.430778   -82.441866   -82.441866    4.0110884 
  612000    1830.2186   -78.548698   -82.570461   -82.570461    4.0217636 
  613000    1836.1294   -78.400461   -82.435213   -82.435213    4.0347519 
  614000    1843.8363   -78.544939   -82.596627   -82.596627    4.0516874 
  615000    1843.6187   -78.491747   -82.542956   -82.542956    4.0512092 
  616000    1847.0137   -78.418036   -82.476705   -82.476705    4.0586694 
  617000    1849.9696   -78.463906   -82.529071   -82.529071    4.0651647 
  618000    1855.5568   -78.491639   -82.569081   -82.569081    4.0774423 
  619000    1859.7472   -78.447419    -82.53407    -82.53407    4.0866503 
  620000    1859.9496   -78.450969   -82.538064   -82.538064     4.087095 
  621000    1862.5546   -78.441782   -82.534601   -82.534601    4.0928194 
  622000    1870.2895   -78.457062   -82.566878   -82.566878    4.1098161 
  623000    1866.1465   -78.403323   -82.504035   -82.504035    4.1007124 
  624000    1875.7462   -78.422204   -82.544011   -82.544011    4.1218068 
  625000     1872.212   -78.377731   -82.491772   -82.491772    4.1140407 
  626000    1878.8832   -78.353466   -82.482166   -82.482166    4.1287001 
  627000    1883.6075   -78.427437   -82.566518   -82.566518    4.1390815 
  628000    1886.8066   -78.396252   -82.542363   -82.542363    4.1461113 
  629000    1885.9207   -78.324192   -82.468356   -82.468356    4.1441645 
  630000    1892.3219   -78.380733   -82.538964   -82.538964    4.1582305 
  631000    1895.0154   -78.470997   -82.635146   -82.635146    4.1641494 
  632000    1896.9578    -78.39547   -82.563888   -82.563888    4.1684177 
  633000    1902.8102   -78.320908   -82.502185   -82.502185    4.1812778 
  634000    1902.0548   -78.393827   -82.573445   -82.573445    4.1796178 
  635000     1900.947   -78.379153   -82.556337   -82.556337    4.1771835 
  636000    1904.2879   -78.343227   -82.527752   -82.527752    4.1845249 
  637000    1913.7864    -78.34593   -82.551327   -82.551327    4.2053973 
  638000    1906.7888   -78.323904   -82.513924   -82.513924    4.1900206 
  639000    1915.2222   -78.320205   -82.528758   -82.528758    4.2085522 
  640000    1916.1332    -78.34351   -82.554064   -82.554064    4.2105541 
  641000    1923.4945   -78.386709   -82.613439   -82.613439      4.22673 
  642000    1922.5833   -78.259497   -82.484225   -82.484225    4.2247276 
  643000    1930.1407    -78.33794   -82.579274   -82.579274    4.2413344 
  644000    1930.5708    -78.34849    -82.59077    -82.59077    4.2422795 
  645000     1931.657   -78.324476   -82.569143   -82.569143    4.2446665 
  646000    1941.2027   -78.263895   -82.529537   -82.529537    4.2656423 
  647000    1940.2932   -78.212139   -82.475783   -82.475783    4.2636439 
  648000    1942.6631   -78.194906   -82.463758   -82.463758    4.2688516 
  649000     1946.981   -78.311333   -82.589673   -82.589673    4.2783399 
  650000     1953.482   -78.282009   -82.574635   -82.574635    4.2926253 
  651000    1956.8931   -78.270053   -82.570174   -82.570174    4.3001208 
  652000     1953.921   -78.237925   -82.531515   -82.531515    4.2935899 
  653000    1962.7331   -78.273319   -82.586273   -82.586273    4.3129537 
  654000     1964.827   -78.228342   -82.545897   -82.545897     4.317555 
  655000    1961.9494   -78.197485   -82.508717   -82.508717    4.3112317 
  656000    1974.4119   -78.172456   -82.511073   -82.511073     4.338617 
  657000    1971.2529   -78.227704   -82.559379   -82.559379    4.3316755 
  658000    1975.7335   -78.235109    -82.57663    -82.57663    4.3415212 
  659000    1973.0387   -78.152635   -82.488235   -82.488235    4.3355995 
  660000     1983.336   -78.132986   -82.491213   -82.491213     4.358227 
  661000    1985.5617   -78.263139   -82.626257   -82.626257    4.3631179 
  662000    1991.4105   -78.243269   -82.619239   -82.619239    4.3759701 
  663000    1986.7445   -78.242677   -82.608394   -82.608394    4.3657171 
  664000    1993.7158   -78.203387   -82.584423   -82.584423    4.3810358 
  665000    1994.2667   -78.174844    -82.55709    -82.55709    4.3822464 
  666000    1994.6482   -78.220257   -82.603341   -82.603341    4.3830847 
  667000    2001.2152   -78.171862   -82.569377   -82.569377    4.3975153 
  668000    1999.9539   -78.088196    -82.48294    -82.48294    4.3947435 
  669000     2003.206   -78.148102   -82.549991   -82.549991    4.4018899 
  670000     2006.977   -78.151422   -82.561598   -82.561598    4.4101763 
  671000    2013.0938    -78.07434   -82.497957   -82.497957    4.4236176 
  672000    2016.2742   -78.065977   -82.496583   -82.496583    4.4306062 
  673000    2024.4376   -78.195518   -82.644062   -82.644062    4.4485447 
  674000    2021.8177    -78.11735   -82.560137   -82.560137    4.4427876 
  675000    2025.8332   -78.115604   -82.567215   -82.567215    4.4516115 
  676000    2026.5398   -78.091726   -82.544891   -82.544891    4.4531641 
  677000    2034.3071   -78.132107    -82.60234    -82.60234    4.4702321 
  678000    2035.9437   -78.066577   -82.540405   -82.540405    4.4738284 
  679000    2037.0618   -78.112165    -82.58845    -82.58845    4.4762854 
  680000     2040.292   -78.067978   -82.551361   -82.551361    4.4833835 
  681000    2040.5438   -78.113518   -82.597454   -82.597454    4.4839367 
  682000    2046.5131   -78.103504   -82.600557   -82.600557    4.4970538 
  683000    2048.2813   -78.015616   -82.516555   -82.516555    4.5009394 
  684000    2051.8583    -78.01065   -82.519449   -82.519449    4.5087995 
  685000    2055.1549   -78.131655   -82.647699   -82.647699    4.5160435 
  686000    2054.8422   -78.100883    -82.61624    -82.61624    4.5153564 
  687000    2062.5989    -78.06348   -82.595882   -82.595882    4.5324012 
  688000     2063.838   -78.076784   -82.611908   -82.611908     4.535124 
  689000    2067.7823   -78.015567   -82.559359   -82.559359    4.5437914 
  690000    2067.7298   -78.065043   -82.608719   -82.608719    4.5436759 
  691000    2070.2334   -77.962083    -82.51126    -82.51126    4.5491773 
  692000    2077.1418   -77.950752    -82.51511    -82.51511    4.5643581 
  693000    2074.8419   -78.048921   -82.608225   -82.608225    4.5593042 
  694000    2082.2132   -78.034818    -82.61032    -82.61032    4.5755022 
  695000    2085.1939   -77.955943   -82.537995   -82.537995    4.5820518 
  696000    2084.3932   -78.053956   -82.634248   -82.634248    4.5802924 
  697000    2091.9834   -77.960858   -82.557829   -82.557829    4.5969714 
  698000    2087.2667   -77.939654   -82.526261   -82.526261    4.5866067 
  699000    2098.2655   -78.018135   -82.628911   -82.628911    4.6107757 
  700000    2095.1562   -77.905289   -82.509232   -82.509232    4.6039433 
  701000    2103.1802   -77.925286   -82.546861   -82.546861    4.6215755 
  702000    2107.7857   -77.983468   -82.615164   -82.615164    4.6316956 
  703000    2106.9117   -77.847966   -82.477741   -82.477741    4.6297751 
  704000    2114.4865   -77.915956   -82.562376   -82.562376    4.6464201 
  705000    2120.6116   -77.924188   -82.584068   -82.584068    4.6598795 
  706000    2113.0611   -77.936343   -82.579631   -82.579631     4.643288 
  707000    2125.1263   -77.923233   -82.593033   -82.593033    4.6698002 
  708000    2122.4015   -77.887074   -82.550886   -82.550886    4.6638127 
  709000    2128.0563   -77.886242   -82.562481   -82.562481    4.6762388 
  710000    2128.4705   -77.925391   -82.602539   -82.602539     4.677149 
  711000    2134.8126   -77.830498   -82.521584   -82.521584    4.6910853 
  712000    2136.4151   -77.885376   -82.579983   -82.579983    4.6946064 
  713000    2139.4581   -77.899023   -82.600316   -82.600316    4.7012933 
  714000    2146.1427     -77.8551   -82.571082   -82.571082    4.7159821 
  715000    2143.1023   -77.857606   -82.566907   -82.566907    4.7093012 
  716000    2153.3399   -77.900251   -82.632049   -82.632049    4.7317975 
  717000    2149.9484   -77.821038   -82.545383   -82.545383     4.724345 
  718000     2154.312   -77.790576   -82.524509   -82.524509    4.7339335 
  719000    2155.4196   -77.828481   -82.564848   -82.564848    4.7363674 
  720000    2159.0407   -77.838627   -82.582952   -82.582952    4.7443246 
  721000    2164.0383   -77.788478   -82.543784   -82.543784    4.7553065 
  722000    2164.3009    -77.81014   -82.566023   -82.566023    4.7558835 
  723000    2163.8285   -77.760559   -82.515405   -82.515405    4.7548454 
  724000    2171.9349   -77.803897   -82.576556   -82.576556    4.7726586 
  725000    2177.4983   -77.807506    -82.59239    -82.59239    4.7848838 
  726000    2177.5045   -77.765988   -82.550886   -82.550886    4.7848974 
  727000    2177.6489    -77.68095   -82.466165   -82.466165    4.7852146 
  728000     2183.885   -77.767143   -82.566061   -82.566061     4.798918 
  729000    2187.9547   -77.817323   -82.625184   -82.625184    4.8078608 
  730000    2190.0569   -77.772782   -82.585262   -82.585262    4.8124803 
  731000    2187.6039   -77.767416   -82.574506   -82.574506      4.80709 
  732000    2196.7195   -77.764457   -82.591578   -82.591578    4.8271207 
  733000    2195.1674   -77.726231   -82.549941   -82.549941    4.8237102 
  734000    2202.3818   -77.811908   -82.651472   -82.651472    4.8395634 
  735000    2208.4237   -77.689126   -82.541966   -82.541966    4.8528398 
  736000    2209.4689   -77.709904   -82.565041   -82.565041    4.8551367 
  737000    2210.1793   -77.727743    -82.58444    -82.58444    4.8566976 
  738000    2211.2322   -77.698203   -82.557214   -82.557214    4.8590114 
  739000     2219.545   -77.703476   -82.580754   -82.580754    4.8772781 
  740000    2218.9704   -77.698311   -82.574326   -82.574326    4.8760153 
  741000    2225.2183    -77.64136   -82.531105   -82.531105    4.8897448 
  742000    2222.7101    -77.69975   -82.583983   -82.583983     4.884233 
  743000    2226.7038   -77.665511    -82.55852    -82.55852    4.8930089 
  744000    2233.5005   -77.699575   -82.607519   -82.607519    4.9079442 
  745000    2236.8035    -77.60181   -82.517012   -82.517012    4.9152023 
  746000    2233.9509   -77.649051   -82.557985   -82.557985    4.9089339 
  747000     2243.231   -77.603956   -82.533282   -82.533282    4.9293262 
  748000    2240.9293   -77.583518   -82.507787   -82.507787    4.9242683 
  749000    2252.5226   -77.625524   -82.575267   -82.575267    4.9497437 
  750000    2253.1382   -77.632983    -82.58408    -82.58408    4.9510964 
  751000    2254.9212   -77.610457   -82.565471   -82.565471    4.9550145 
  752000    2259.8296   -77.604935   -82.570735   -82.570735    4.9658004 
  753000    2259.8817    -77.55878   -82.524695   -82.524695    4.9659147 
  754000    2260.6012    -77.63945   -82.606946   -82.606946    4.9674958 
  755000    2269.3087   -77.536988   -82.523618   -82.523618      4.98663 
  756000    2261.3352   -77.582138   -82.551246   -82.551246    4.9691088 
  757000    2267.5903   -77.630086    -82.61294    -82.61294    4.9828539 
  758000    2274.1056   -77.554838   -82.552009   -82.552009    4.9971707 
  759000    2280.4021    -77.56406   -82.575067   -82.575067    5.0110068 
  760000    2277.3269   -77.570524   -82.574774   -82.574774    5.0042493 
  761000    2282.0907   -77.543467   -82.558184   -82.558184    5.0147173 
  762000     2284.118   -77.594969   -82.614141   -82.614141    5.0191722 
  763000    2292.4506   -77.586589   -82.624072   -82.624072    5.0374824 
  764000    2292.3429   -77.546004    -82.58325    -82.58325    5.0372457 
  765000    2294.1747    -77.51421   -82.555481   -82.555481    5.0412711 
  766000    2295.8516   -77.507606   -82.552562   -82.552562    5.0449559 
  767000    2301.5256   -77.513227   -82.570651   -82.570651     5.057424 
  768000    2306.9015   -77.531064   -82.600301   -82.600301    5.0692372 
  769000    2302.6115   -77.516226   -82.576036   -82.576036    5.0598102 
  770000    2309.6059   -77.519298   -82.594478   -82.594478      5.07518 
  771000    2308.9306   -77.503656   -82.577352   -82.577352    5.0736959 
  772000    2318.0951   -77.547603   -82.641437   -82.641437    5.0938343 
  773000     2320.473   -77.440296   -82.539356   -82.539356    5.0990595 
  774000    2321.1991   -77.379666   -82.480321   -82.480321    5.1006551 
  775000    2321.8434   -77.453257   -82.555328   -82.555328    5.1020709 
  776000    2327.3507   -77.522798   -82.636971   -82.636971    5.1141727 
  777000    2334.1639    -77.50527   -82.634414   -82.634414    5.1291443 
  778000     2331.116   -77.517351   -82.639797   -82.639797    5.1224466 
  779000    2339.0289   -77.488079   -82.627914   -82.627914    5.1398347 
  780000    2336.4458   -77.506372    -82.64053    -82.64053    5.1341584 
  781000    2343.2211   -77.442772   -82.591819   -82.591819    5.1490466 
  782000    2347.0749   -77.370206   -82.527721   -82.527721    5.1575152 
  783000    2345.8583   -77.390549   -82.545391   -82.545391    5.1548416 
  784000    2353.3426   -77.367544   -82.538832   -82.538832    5.1712879 
  785000    2351.3686   -77.391639   -82.558589   -82.558589    5.1669501 
  786000    2359.1713   -77.334663   -82.518759   -82.518759    5.1840961 
  787000    2361.8951   -77.353951   -82.544032   -82.544032    5.1900814 
  788000     2363.272   -77.359049   -82.552156   -82.552156     5.193107 
  789000    2368.6255   -77.356689    -82.56156    -82.56156    5.2048709 
  790000    2367.3289   -77.317389   -82.519411   -82.519411    5.2020216 
  791000    2379.8645   -77.282167   -82.511734   -82.511734    5.2295676 
  792000    2378.2556   -77.255071   -82.481103   -82.481103    5.2260323 
  793000     2379.052    -77.29196   -82.519743   -82.519743    5.2277824 
  794000    2379.5541   -77.310864   -82.539749   -82.539749    5.2288855 
  795000    2387.2921   -77.293549   -82.539438   -82.539438    5.2458894 
  796000    2399.2618   -77.290146   -82.562338   -82.562338    5.2721919 
  797000    2394.5068   -77.353912   -82.615655   -82.615655     5.261743 
  798000    2389.7926   -77.343581   -82.594965   -82.594965    5.2513839 
  799000    2397.7854   -77.242773   -82.511721   -82.511721    5.2689475 
  800000     2398.643   -77.230081   -82.500914   -82.500914    5.2708321 
  801000    2404.5344   -77.307135   -82.590913   -82.590913     5.283778 
  802000    2406.3672    -77.32736   -82.615166   -82.615166    5.2878053 
  803000    2406.2014   -77.287437   -82.574878   -82.574878    5.2874411 
  804000      2409.57   -77.261956     -82.5568     -82.5568    5.2948432 
  805000    2418.9772   -77.238687   -82.554202   -82.554202    5.3155149 
  806000    2416.2828   -77.302869   -82.612463   -82.612463    5.3095942 
  807000    2416.4535   -77.267639   -82.577608   -82.577608    5.3099692 
  808000    2428.0758    -77.19348   -82.528988   -82.528988    5.3355082 
  809000    2430.8537   -77.239779   -82.581392   -82.581392    5.3416126 
  810000    2424.5245   -77.261702   -82.589406   -82.589406    5.3277045 
  811000     2432.461   -77.224465    -82.56961    -82.56961    5.3451445 
  812000    2443.5955    -77.25588   -82.625492   -82.625492    5.3696117 
  813000     2433.987   -77.217861   -82.566358   -82.566358    5.3484976 
  814000    2444.4975     -77.1863   -82.557894   -82.557894    5.3715938 
  815000    2447.1125   -77.184798   -82.562138   -82.562138      5.37734 
  816000    2445.6422   -77.219835   -82.593944   -82.593944    5.3741092 
  817000     2448.835   -77.216694   -82.597819   -82.597819     5.381125 
  818000     2457.851   -77.157296   -82.558233   -82.558233     5.400937 
  819000     2455.002   -77.209766   -82.604443   -82.604443    5.3946765 
  820000    2460.0261   -77.225714   -82.631431   -82.631431    5.4057165 
  821000    2464.3588   -77.155993   -82.571231   -82.571231    5.4152375 
  822000    2465.4249   -77.161219   -82.578799   -82.578799    5.4175802 
  823000    2468.0035    -77.12658   -82.549826   -82.549826    5.4232464 
  824000    2469.9295   -77.121067   -82.548546   -82.548546    5.4274786 
  825000    2477.1017   -77.157904   -82.601143   -82.601143     5.443239 
  826000    2475.9217     -77.1239   -82.564546   -82.564546    5.4406459 
  827000    2478.7508   -77.125085   -82.571948   -82.571948    5.4468626 
  828000    2480.5701   -77.093014   -82.543874   -82.543874    5.4508605 
  829000    2487.3651   -77.089214   -82.555006   -82.555006     5.465792 
  830000    2484.8916   -77.095378   -82.555735   -82.555735    5.4603567 
  831000    2495.5094    -77.06596   -82.549648   -82.549648    5.4836885 
  832000    2492.0229   -77.145365   -82.621392   -82.621392     5.476027 
  833000    2495.3316   -77.078044   -82.561342   -82.561342    5.4832976 
  834000     2502.791   -77.099847   -82.599536   -82.599536    5.4996892 
  835000    2505.3628   -77.116201   -82.621542   -82.621542    5.5053404 
  836000    2501.4394     -77.0769   -82.573619   -82.573619    5.4967191 
  837000     2512.266   -77.061608   -82.582118   -82.582118    5.5205098 
  838000     2512.969   -77.075869   -82.597923   -82.597923    5.5220546 
  839000    2514.2754   -77.110646   -82.635572   -82.635572    5.5249253 
  840000    2519.2914   -77.028727   -82.564675   -82.564675    5.5359475 
  841000    2522.1633   -77.090261   -82.632519   -82.632519    5.5422582 
  842000    2524.2387   -77.047795   -82.594614   -82.594614    5.5468189 
  843000    2527.1412   -77.069416   -82.622613   -82.622613    5.5531967 
  844000    2528.5684   -77.064663   -82.620996   -82.620996    5.5563331 
  845000    2531.5141   -76.948579   -82.511385   -82.511385     5.562806 
  846000    2536.9343   -76.998904   -82.573621   -82.573621    5.5747164 
  847000    2539.5822   -77.010358   -82.590893   -82.590893     5.580535 
  848000    2540.0691   -76.971626   -82.553231   -82.553231    5.5816049 
  849000    2550.7113   -77.002412   -82.607403   -82.607403    5.6049903 
  850000    2547.8996    -76.98696   -82.585772   -82.585772    5.5988118 
  851000    2555.6803   -76.980192   -82.596101   -82.596101    5.6159092 
  852000    2557.5508   -76.958917   -82.578936   -82.578936    5.6200196 
  853000    2558.1033   -77.020089   -82.641323   -82.641323    5.6212337 
  854000    2567.4739   -76.957846   -82.599671   -82.599671    5.6418248 
  855000    2564.7165   -76.919852   -82.555618   -82.555618    5.6357656 
  856000    2564.0218   -77.005564   -82.639803   -82.639803    5.6342392 
  857000    2573.4153   -76.963096   -82.617976   -82.617976    5.6548806 
  858000    2573.0522   -76.877472   -82.531555   -82.531555    5.6540828 
  859000    2575.1193    -76.93706   -82.595685   -82.595685    5.6586249 
  860000    2580.9929    -76.93785   -82.609382   -82.609382    5.6715318 
  861000    2579.7731   -76.911336   -82.580188   -82.580188    5.6688514 
  862000    2587.1421   -76.953703   -82.638748   -82.638748    5.6850442 
  863000    2594.8197   -76.893391   -82.595306   -82.595306    5.7019151 
  864000    2591.4703   -76.871259   -82.565814   -82.565814     5.694555 
  865000    2593.5697   -76.913558   -82.612726   -82.612726    5.6991684 
  866000    2604.5535   -76.841752   -82.565057   -82.565057    5.7233044 
  867000    2603.3153   -76.858739   -82.579323   -82.579323    5.7205835 
  868000    2602.4342   -76.891216   -82.609864   -82.609864    5.7186473 
  869000    2603.1467   -76.883571   -82.603784   -82.603784    5.7202129 
  870000    2610.2737    -76.85953   -82.595404   -82.595404     5.735874 
  871000    2612.3859   -76.863315    -82.60383    -82.60383    5.7405154 
  872000     2614.979   -76.803415   -82.549629   -82.549629    5.7462136 
  873000    2620.5015    -76.85784   -82.616189   -82.616189    5.7583489 
  874000    2621.3823   -76.795986   -82.556271   -82.556271    5.7602843 
  875000    2624.9535   -76.832281   -82.600413   -82.600413    5.7681318 
  876000    2629.4852   -76.845589   -82.623678   -82.623678    5.7780899 
  877000    2636.8458   -76.822518   -82.616783   -82.616783    5.7942642 
  878000    2634.2891   -76.812303   -82.600949   -82.600949    5.7886461 
  879000    2636.1814   -76.796901   -82.589705   -82.589705    5.7928041 
  880000    2638.8628   -76.823058   -82.621754   -82.621754    5.7986964 
  881000    2639.6845   -76.784895   -82.585397   -82.585397     5.800502 
  882000    2645.2358   -76.804306   -82.617006   -82.617006    5.8127006 
  883000    2647.7904    -76.75146   -82.569775   -82.569775    5.8183142 
  884000    2651.4817   -76.811249   -82.637674   -82.637674    5.8264254 
  885000    2649.3875   -76.745146   -82.566969   -82.566969    5.8218236 
  886000    2652.3457   -76.741857   -82.570181   -82.570181    5.8283241 
  887000    2659.9474   -76.705972      -82.551      -82.551    5.8450282 
  888000    2662.1869   -76.743397   -82.593346   -82.593346    5.8499493 
  889000    2668.4595   -76.709012   -82.572745   -82.572745    5.8637329 
  890000    2670.8961   -76.701324   -82.570411   -82.570411    5.8690871 
  891000    2670.3703   -76.751082   -82.619014   -82.619014    5.8679317 
  892000    2681.3726   -76.739741   -82.631849   -82.631849    5.8921083 
  893000    2684.1376   -76.667717   -82.565901   -82.565901    5.8981842 
  894000    2680.8689   -76.743369   -82.634371   -82.634371    5.8910016 
  895000     2683.091   -76.650603   -82.546487   -82.546487    5.8958845 
  896000    2687.7611   -76.710952   -82.617099   -82.617099    5.9061465 
  897000    2691.8809   -76.687044   -82.602244   -82.602244    5.9151997 
  898000    2697.0991   -76.676512   -82.603178   -82.603178    5.9266661 
  899000    2693.1962   -76.668617   -82.586707   -82.586707    5.9180899 
  900000     2695.191   -76.714891   -82.637365   -82.637365    5.9224733 
  901000    2699.9895   -76.654412    -82.58743    -82.58743    5.9330176 
  902000     2704.708   -76.616605   -82.559991   -82.559991     5.943386 
  903000    2711.1395     -76.6086   -82.566119   -82.566119    5.9575188 
  904000    2708.1101   -76.639981   -82.590843   -82.590843    5.9508621 
  905000    2709.7147    -76.63092   -82.585308   -82.585308     5.954388 
  906000    2717.3563   -76.609509   -82.580689   -82.580689    5.9711799 
  907000    2725.5092     -76.5373   -82.526396   -82.526396    5.9890952 
  908000    2726.6804   -76.636095   -82.627764   -82.627764    5.9916687 
  909000     2726.417   -76.651418   -82.642508   -82.642508    5.9910899 
  910000    2727.5208   -76.598872   -82.592387   -82.592387    5.9935155 
  911000    2733.5792   -76.560831    -82.56766    -82.56766    6.0068284 
  912000     2737.708   -76.612929    -82.62883    -82.62883     6.015901 
  913000    2740.7296   -76.562131   -82.584672   -82.584672    6.0225408 
  914000    2746.4768   -76.561257   -82.596426   -82.596426    6.0351697 
  915000     2740.755   -76.554212   -82.576809   -82.576809    6.0225965 
  916000      2746.95   -76.571451    -82.60766    -82.60766    6.0362096 
  917000    2750.8451   -76.607607   -82.652376   -82.652376    6.0447688 
  918000    2751.0289    -76.58197   -82.627143   -82.627143    6.0451728 
  919000    2755.9716   -76.525653   -82.581686   -82.581686    6.0560338 
  920000    2759.0816   -76.534048   -82.596916   -82.596916    6.0628679 
  921000     2753.761   -76.524727   -82.575903   -82.575903    6.0511762 
  922000    2768.1924   -76.509107   -82.591995   -82.591995    6.0828882 
  923000    2771.1602   -76.493685   -82.583094   -82.583094    6.0894097 
  924000    2770.9573   -76.498196    -82.58716    -82.58716    6.0889639 
  925000    2774.7961   -76.439831   -82.537231   -82.537231    6.0973994 
  926000    2775.3241   -76.459413   -82.557973   -82.557973    6.0985595 
  927000    2781.3577   -76.509662    -82.62148    -82.62148    6.1118179 
  928000    2788.7347   -76.471581   -82.599609   -82.599609    6.1280283 
  929000    2786.2566   -76.482208   -82.604791   -82.604791     6.122583 
  930000    2787.1655   -76.489957   -82.614537   -82.614537    6.1245801 
  931000    2788.8195   -76.450877   -82.579092   -82.579092    6.1282147 
  932000    2795.9055   -76.434481   -82.578266   -82.578266    6.1437855 
  933000    2801.5823   -76.448389   -82.604649   -82.604649    6.1562599 
  934000    2802.4756   -76.422076   -82.580299   -82.580299    6.1582229 
  935000     2801.171   -76.424209   -82.579565   -82.579565    6.1553561 
  936000    2804.8775   -76.449431   -82.612932   -82.612932    6.1635009 
  937000     2814.172   -76.447981   -82.631906   -82.631906    6.1839247 
  938000    2814.5472   -76.388401    -82.57315    -82.57315    6.1847493 
  939000    2819.2383   -76.400814   -82.595871   -82.595871    6.1950575 
  940000    2818.8241   -76.400661   -82.594808   -82.594808    6.1941475 
  941000    2822.0869   -76.478674   -82.679991   -82.679991    6.2013171 
  942000     2825.261   -76.348847   -82.557139   -82.557139     6.208292 
  943000    2829.4863   -76.433801   -82.651378   -82.651378    6.2175767 
  944000    2833.9024   -76.386514   -82.613795   -82.613795    6.2272807 
  945000    2831.3828   -76.347784   -82.569528   -82.569528    6.2217442 
  946000    2834.0452   -76.373215    -82.60081    -82.60081    6.2275946 
  947000    2844.0227   -76.341667   -82.591186   -82.591186    6.2495194 
  948000    2840.5837   -76.328415   -82.570377   -82.570377    6.2419624 
  949000    2848.8124   -76.355909   -82.615954   -82.615954    6.2600445 
  950000    2853.5369   -76.330013   -82.600439   -82.600439     6.270426 
  951000     2851.884   -76.347322   -82.614116   -82.614116    6.2667941 
  952000    2855.6939   -76.382331   -82.657497   -82.657497     6.275166 
  953000    2861.8641   -76.297629   -82.586353   -82.586353    6.2887246 
  954000    2862.2473    -76.35047   -82.640036   -82.640036    6.2895666 
  955000    2862.8336   -76.301219   -82.592074   -82.592074    6.2908549 
  956000    2869.8322   -76.317466   -82.623699   -82.623699    6.3062338 
  957000    2868.9437   -76.355436   -82.659718   -82.659718    6.3042814 
  958000     2869.197   -76.321269   -82.626107   -82.626107     6.304838 
  959000    2879.9047   -76.308417   -82.636784   -82.636784    6.3283673 
  960000    2880.4808   -76.341645   -82.671279   -82.671279    6.3296333 
  961000    2879.3436   -76.291997   -82.619131   -82.619131    6.3271343 
  962000     2887.762   -76.219111   -82.564743   -82.564743     6.345633 
  963000     2892.762    -76.25135    -82.60797    -82.60797    6.3566202 
  964000    2887.3908   -76.260521   -82.605338   -82.605338    6.3448173 
  965000    2896.8334   -76.252256   -82.617822   -82.617822    6.3655667 
  966000    2899.2898   -76.281666   -82.652631   -82.652631    6.3709646 
  967000    2904.3683   -76.237053   -82.619177   -82.619177    6.3821241 
  968000    2902.2479   -76.225996   -82.603461   -82.603461    6.3774647 
  969000    2909.3126   -76.244913   -82.637901   -82.637901    6.3929889 
  970000    2909.1619   -76.261934   -82.654591   -82.654591    6.3926577 
  971000    2912.8627   -76.237062   -82.637852   -82.637852    6.4007899 
  972000    2914.8766   -76.159528   -82.564743   -82.564743    6.4052152 
  973000    2918.5601   -76.146528   -82.559837   -82.559837    6.4133095 
  974000    2923.0558   -76.209787   -82.632975   -82.632975    6.4231884 
  975000    2919.5417   -76.203621   -82.619088   -82.619088    6.4154666 
  976000    2928.7979   -76.190986   -82.626793   -82.626793    6.4358064 
  977000    2930.6553   -76.180613   -82.620501   -82.620501    6.4398878 
  978000    2934.4423   -76.167517   -82.615727   -82.615727    6.4482095 
  979000    2934.6152   -76.133951   -82.582541   -82.582541    6.4485893 
  980000    2939.6166   -76.146862   -82.606441   -82.606441    6.4595795 
  981000    2937.4302   -76.137367   -82.592142   -82.592142     6.454775 
  982000    2948.6038     -76.0928   -82.572128   -82.572128    6.4793282 
  983000    2946.9636   -76.126243   -82.601967   -82.601967     6.475724 
  984000    2950.2516   -76.115232   -82.598181   -82.598181     6.482949 
  985000    2955.0304   -76.150342   -82.643792   -82.643792    6.4934502 
  986000    2957.8755   -76.095653   -82.595355   -82.595355     6.499702 
  987000    2963.9222   -76.128874   -82.641864   -82.641864    6.5129893 
  988000    2961.1698   -76.109084   -82.616025   -82.616025     6.506941 
  989000    2967.0753    -76.11536   -82.635278   -82.635278    6.5199179 
  990000    2965.1658   -76.100397   -82.616119   -82.616119    6.5157219 
  991000    2974.0683   -76.084235   -82.619519   -82.619519    6.5352844 
  992000    2974.0835   -76.093328   -82.628646   -82.628646     6.535318 
  993000     2977.501   -76.068041   -82.610869   -82.610869    6.5428275 
  994000    2977.9775   -76.031517   -82.575392   -82.575392    6.5438746 
  995000    2986.4067   -76.061637   -82.624034   -82.624034    6.5623971 
  996000    2986.8765   -76.066646   -82.630075   -82.630075    6.5634295 
  997000    2994.6852   -76.044906   -82.625495   -82.625495    6.5805886 
  998000    2992.8578   -76.045707    -82.62228    -82.62228    6.5765729 
  999000    2995.3309   -75.991647   -82.573655   -82.573655    6.5820074 
 1000000    3003.7971   -76.042618   -82.643229   -82.643229    6.6006112 
Loop time of 68.188 on 1 procs for 1000000 steps with 18 atoms

Performance: 126.709 ns/day, 0.189 hours/ns, 14665.340 timesteps/s
99.2% CPU use with 1 MPI tasks x 1 OpenMP threads

MPI task timing breakdown:
Section |  min time  |  avg time  |  max time  |%varavg| %total
---------------------------------------------------------------
Pair    | 55.509     | 55.509     | 55.509     |   0.0 | 81.41
[...]
 1857000    728.77353   -81.165646   -82.767069   -82.767069    1.6014233 
 1858000    725.98645   -81.161212   -82.756511   -82.756511    1.5952989 
 1859000    722.83792   -81.175897   -82.764278   -82.764278    1.5883803 
 1860000    719.88114   -81.179384   -82.761267   -82.761267     1.581883 
 1861000    716.70056   -81.174735   -82.749629   -82.749629    1.5748939 
 1862000    714.25202   -81.187502   -82.757015   -82.757015    1.5695134 
 1863000    711.26679   -81.196866    -82.75982    -82.75982    1.5629536 
 1864000    708.28167   -81.201904   -82.758298   -82.758298     1.556394 
 1865000     705.3383   -81.216263   -82.766189   -82.766189    1.5499262 
 1866000    702.23358   -81.215853   -82.758957   -82.758957    1.5431038 
 1867000    699.13776   -81.217069    -82.75337    -82.75337     1.536301 
 1868000    695.96571   -81.238102   -82.767433   -82.767433    1.5293307 
 1869000    692.71397   -81.245184   -82.767369   -82.767369    1.5221852 
 1870000    689.72821   -81.237915   -82.753539   -82.753539    1.5156243 
 1871000     686.7641   -81.250751   -82.759861   -82.759861    1.5091109 
 1872000    683.82235   -81.249493    -82.75214    -82.75214    1.5026466 
 1873000    681.28487   -81.257909    -82.75498    -82.75498    1.4970707 
 1874000    678.10583   -81.276633   -82.766718   -82.766718     1.490085 
 1875000     675.5652    -81.27828   -82.762782   -82.762782    1.4845021 
 1876000    672.15512   -81.287198   -82.764207   -82.764207    1.4770088 
 1877000    669.26671   -81.287453   -82.758115   -82.758115    1.4706617 
 1878000    666.10996    -81.29024   -82.753965   -82.753965     1.463725 
 1879000    663.08871   -81.308105   -82.765191   -82.765191     1.457086 
 1880000    659.73774   -81.320121   -82.769843   -82.769843    1.4497225 
 1881000    656.82039   -81.312113   -82.755425   -82.755425    1.4433119 
 1882000    653.92806   -81.316215   -82.753171   -82.753171    1.4369562 
 1883000    650.85992   -81.331931   -82.762145   -82.762145    1.4302142 
 1884000     648.3297   -81.337661   -82.762315   -82.762315    1.4246543 
 1885000    645.29354   -81.343858    -82.76184    -82.76184    1.4179825 
 1886000    641.94959   -81.349346    -82.75998    -82.75998    1.4106345 
 1887000    639.82835    -81.35143   -82.757403   -82.757403    1.4059732 
 1888000    636.00776    -81.36664   -82.764218   -82.764218    1.3975777 
 1889000      633.285   -81.373823   -82.765417   -82.765417    1.3915947 
 1890000    630.20097   -81.378086   -82.762904   -82.762904    1.3848178 
 1891000    626.65888   -81.377336    -82.75437    -82.75437    1.3770343 
 1892000    624.12015   -81.382134    -82.75359    -82.75359    1.3714556 
 1893000    620.64786   -81.394589   -82.758415   -82.758415    1.3638256 
 1894000    617.79258    -81.40273   -82.760282   -82.760282    1.3575513 
 1895000     614.9063   -81.411352   -82.762561   -82.762561    1.3512089 
 1896000    612.46849    -81.41319   -82.759042   -82.759042     1.345852 
 1897000    609.23432   -81.427345   -82.766091   -82.766091    1.3387452 
 1898000    606.30757   -81.429604   -82.761918   -82.761918    1.3323139 
 1899000    603.44844   -81.434458   -82.760489   -82.760489    1.3260312 
 1900000    599.84524   -81.446336   -82.764449   -82.764449    1.3181134 
 1901000    597.39927   -81.448423   -82.761162   -82.761162    1.3127386 
 1902000    593.69913    -81.45598   -82.760588   -82.760588    1.3046078 
 1903000    590.64113   -81.458051   -82.755939   -82.755939    1.2978881 
 1904000    588.23046   -81.468136   -82.760727   -82.760727    1.2925908 
 1905000    584.54705   -81.478579   -82.763075   -82.763075    1.2844968 
 1906000    582.14177   -81.483891   -82.763102   -82.763102    1.2792114 
 1907000    579.23417   -81.485672   -82.758494   -82.758494    1.2728222 
 1908000    575.94432   -81.489415   -82.755008   -82.755008     1.265593 
 1909000     573.4687   -81.506857    -82.76701    -82.76701     1.260153 
 1910000    570.03825   -81.511726   -82.764341   -82.764341    1.2526148 
 1911000    567.26877   -81.517907   -82.764436   -82.764436    1.2465291 
 1912000    564.26477   -81.527684   -82.767612   -82.767612    1.2399281 
 1913000    560.91527    -81.53014   -82.762708   -82.762708    1.2325678 
 1914000    557.69654   -81.530188   -82.755683   -82.755683    1.2254949 
 1915000    555.10076   -81.547123   -82.766914   -82.766914    1.2197909 
 1916000    551.74933    -81.55374   -82.766166   -82.766166    1.2124264 
 1917000    548.70795   -81.555116   -82.760859   -82.760859    1.2057432 
 1918000    546.61522    -81.56281   -82.763955   -82.763955    1.2011446 
 1919000    542.74758   -81.564799   -82.757445   -82.757445    1.1926457 
 1920000    540.68866   -81.574874   -82.762996   -82.762996    1.1881214 
 1921000    537.36511   -81.586793   -82.767612   -82.767612    1.1808182 
 1922000    534.07184   -81.588975   -82.762557   -82.762557    1.1735815 
 1923000    531.44912   -81.589502    -82.75732    -82.75732    1.1678182 
 1924000    528.14334   -81.603584   -82.764138   -82.764138     1.160554 
 1925000    524.89499   -81.609148   -82.762564   -82.762564     1.153416 
 1926000    522.06573   -81.620194   -82.767393   -82.767393     1.147199 
 1927000     519.2268    -81.62425   -82.765211   -82.765211    1.1409606 
 1928000    515.81669   -81.633848   -82.767315   -82.767315    1.1334672 
 1929000    513.52885   -81.632263   -82.760702   -82.760702    1.1284398 
 1930000    510.18139   -81.642218   -82.763302   -82.763302    1.1210841 
 1931000    506.89166   -81.654784    -82.76864    -82.76864    1.1138551 
 1932000     504.6047   -81.657823   -82.766652   -82.766652    1.1088297 
 1933000    500.81758   -81.664055   -82.764563   -82.764563    1.1005078 
 1934000    498.25767   -81.668834   -82.763716   -82.763716    1.0948826 
 1935000    495.01605   -81.675543   -82.763302   -82.763302    1.0877594 
 1936000     491.6025   -81.684179   -82.764438   -82.764438    1.0802584 
 1937000    489.06051     -81.6912   -82.765873   -82.765873    1.0746726 
 1938000    485.79835   -81.698896     -82.7664     -82.7664    1.0675042 
 1939000    482.79295   -81.701269   -82.762169   -82.762169    1.0609001 
 1940000      480.064   -81.708894   -82.763798   -82.763798    1.0549034 
 1941000    476.98681    -81.71491   -82.763051   -82.763051    1.0481415 
 1942000    473.97996   -81.723894   -82.765428   -82.765428    1.0415342 
 1943000    471.01431   -81.730017   -82.765034   -82.765034    1.0350174 
 1944000    468.19942   -81.733614   -82.762446   -82.762446    1.0288319 
 1945000    464.63885   -81.736873   -82.757881   -82.757881    1.0210078 
 1946000     462.3177   -81.749912   -82.765819   -82.765819    1.0159073 
 1947000     458.9579   -81.760448   -82.768972   -82.768972    1.0085244 
 1948000    455.68168   -81.760393   -82.761719   -82.761719    1.0013252 
 1949000    453.71439   -81.766589   -82.763591   -82.763591    0.9970022 
 1950000    449.56762   -81.774534   -82.762424   -82.762424   0.98788999 
 1951000    447.52158   -81.779967   -82.763361   -82.763361   0.98339398 
 1952000    444.15743   -81.792999   -82.769001   -82.769001   0.97600151 
 1953000    440.88221    -81.79687   -82.765674   -82.765674   0.96880447 
 1954000    438.48534   -81.795783    -82.75932    -82.75932   0.96353753 
 1955000    435.09874   -81.807497   -82.763592   -82.763592   0.95609574 
 1956000    432.01235   -81.816859   -82.766173   -82.766173   0.94931364 
 1957000    429.29409   -81.824967   -82.768307   -82.768307   0.94334048 
 1958000    426.17961   -81.831963   -82.768459   -82.768459   0.93649666 
 1959000    422.72513   -81.835727   -82.764632   -82.764632   0.92890569 
 1960000    420.25269    -81.83745   -82.760922   -82.760922   0.92347269 
 1961000    416.93121   -81.846508   -82.762682   -82.762682   0.91617401 
 1962000    413.84124   -81.864971   -82.774355   -82.774355   0.90938404 
 1963000    411.55782   -81.861592   -82.765959   -82.765959    0.9043664 
 1964000    407.84313   -81.867337   -82.763541   -82.763541   0.89620366 
 1965000    405.15829   -81.878663   -82.768967   -82.768967   0.89030392 
 1966000    402.39389   -81.877519   -82.761748   -82.761748   0.88422937 
 1967000     398.5838   -81.886982   -82.762839   -82.762839   0.87585699 
 1968000    396.41338   -81.901329   -82.772417   -82.772417   0.87108768 
 1969000    392.67506   -81.904108   -82.766981   -82.766981   0.86287299 
 1970000    390.22608   -81.904739    -82.76223    -82.76223   0.85749154 
 1971000    387.07849   -81.917829   -82.768404   -82.768404   0.85057498 
 1972000     384.0903   -81.928472   -82.772481   -82.772481   0.84400865 
 1973000    380.97244   -81.928868   -82.766025   -82.766025   0.83715739 
 1974000    378.08945   -81.937799   -82.768622   -82.768622   0.83082224 
 1975000    375.29493   -81.938687   -82.763369   -82.763369   0.82468151 
 1976000     371.7352   -81.947233   -82.764092   -82.764092   0.81685928 
 1977000    369.28634   -81.959268   -82.770746   -82.770746   0.81147811 
 1978000    365.97825    -81.96386   -82.768069   -82.768069   0.80420882 
 1979000    363.01067   -81.967249   -82.764937   -82.764937    0.7976878 
 1980000    360.20332   -81.976112   -82.767631   -82.767631   0.79151887 
 1981000    356.84329   -81.979359   -82.763495   -82.763495   0.78413547 
 1982000    354.28559   -81.988995    -82.76751    -82.76751   0.77851512 
 1983000    351.09864   -82.002125   -82.773637   -82.773637   0.77151204 
 1984000    347.81619   -81.998944   -82.763244   -82.763244   0.76429911 
 1985000    345.33257   -82.006251   -82.765092   -82.765092   0.75884155 
 1986000    342.11361   -82.017592    -82.76936    -82.76936   0.75176812 
 1987000    339.19222     -82.0231   -82.768448   -82.768448   0.74534861 
 1988000     335.9083   -82.033099   -82.771231   -82.771231   0.73813244 
 1989000    333.06492   -82.037518   -82.769403   -82.769403   0.73188434 
 1990000    329.83762   -82.039727    -82.76452    -82.76452    0.7247926 
 1991000    327.32443   -82.051296   -82.770566   -82.770566   0.71927006 
 1992000    323.86385   -82.057347   -82.769013   -82.769013   0.71166571 
 1993000    320.92835   -82.063318   -82.768533   -82.768533   0.70521516 
 1994000    318.42189    -82.06903   -82.768737   -82.768737   0.69970741 
 1995000    314.90184   -82.074932   -82.766904   -82.766904   0.69197238 
 1996000    312.22419   -82.079426   -82.765514   -82.765514   0.68608844 
 1997000    309.16633   -82.090767   -82.770136   -82.770136   0.67936903 
 1998000    305.91817   -82.097216   -82.769447   -82.769447   0.67223146 
 1999000    303.22459   -82.104485   -82.770798   -82.770798   0.66631252 
 2000000    300.10584   -82.108765   -82.768224   -82.768224   0.65945932 
 2001000    296.89852   -82.115458    -82.76787    -82.76787   0.65241149 
 2002000    294.37052   -82.124055   -82.770911   -82.770911    0.6468564 
 2003000    291.01794   -82.132829   -82.772318   -82.772318   0.63948936 
 2004000    288.13421   -82.135803   -82.768956   -82.768956   0.63315259 
 2005000    285.10396   -82.140503   -82.766997   -82.766997   0.62649384 
 2006000    282.03816   -82.149661   -82.769418   -82.769418     0.619757 
 2007000     278.9679   -82.153509    -82.76652    -82.76652   0.61301033 
 2008000    276.30717   -82.166656    -82.77382    -82.77382   0.60716359 
 2009000    272.86384   -82.175566   -82.775163   -82.775163   0.59959712 
 2010000    270.15203    -82.17297   -82.766608   -82.766608   0.59363813 
 2011000    267.11203   -82.183364   -82.770322   -82.770322   0.58695798 
 2012000    264.06674   -82.190112   -82.770378   -82.770378    0.5802662 
 2013000    260.85447   -82.197295   -82.770502   -82.770502   0.57320748 
 2014000    258.11058   -82.205962    -82.77314    -82.77314   0.56717799 
 2015000    254.98761   -82.209508   -82.769824   -82.769824    0.5603155 
 2016000    252.11188   -82.212558   -82.766554   -82.766554   0.55399631 
 2017000    249.07236   -82.223432   -82.770749   -82.770749   0.54731721 
 2018000    246.08139   -82.228482   -82.769226   -82.769226   0.54074477 
 2019000    243.19913   -82.236552   -82.770963   -82.770963   0.53441124 
 2020000    240.07703   -82.246069   -82.773619   -82.773619   0.52755066 
 2021000    236.89469   -82.250512   -82.771069   -82.771069   0.52055771 
 2022000    234.17602    -82.25281   -82.767393   -82.767393   0.51458364 
 2023000    230.94332   -82.267168   -82.774648   -82.774648   0.50748004 
 2024000    228.24697   -82.271103   -82.772659   -82.772659   0.50155501 
 2025000    225.20802   -82.277516   -82.772394   -82.772394   0.49487716 
 2026000    222.05486   -82.288107   -82.776055   -82.776055   0.48794833 
 2027000    219.40998   -82.286939   -82.769075   -82.769075   0.48213642 
 2028000    215.90258   -82.293236   -82.767665   -82.767665   0.47442917 
 2029000    213.28643     -82.3051    -82.77378    -82.77378   0.46868038 
 2030000     209.8598   -82.307721   -82.768872   -82.768872   0.46115063 
 2031000    207.09012   -82.321004   -82.776069   -82.776069   0.45506449 
 2032000    204.04684   -82.326815   -82.775192   -82.775192    0.4483771 
 2033000    201.00559   -82.326355   -82.768049   -82.768049   0.44169421 
 2034000    198.09859   -82.337441   -82.772747   -82.772747   0.43530629 
 2035000    195.09142   -82.344526   -82.773225   -82.773225   0.42869826 
 2036000    192.12841   -82.351105   -82.773292   -82.773292   0.42218728 
 2037000    189.04474   -82.358767   -82.774178   -82.774178   0.41541116 
 2038000    185.98042    -82.36145   -82.770127   -82.770127   0.40867756 
 2039000    182.99139   -82.367899   -82.770008   -82.770008    0.4021094 
 2040000    180.04616   -82.375683   -82.771321   -82.771321   0.39563748 
 2041000    177.29596   -82.386166    -82.77576    -82.77576   0.38959412 
 2042000     173.7976    -82.39178   -82.773687   -82.773687   0.38190675 
 2043000     171.2195   -82.397138   -82.773379   -82.773379   0.37624158 
 2044000    167.96883   -82.404152   -82.773251   -82.773251   0.36909848 
 2045000     164.9972   -82.409556   -82.772125   -82.772125   0.36256855 
 2046000    162.25113   -82.416448   -82.772982   -82.772982   0.35653428 
 2047000    158.92196   -82.426688   -82.775907   -82.775907   0.34921868 
 2048000    156.17135   -82.429703   -82.772877   -82.772877   0.34317443 
 2049000    153.05777    -82.43972   -82.776053   -82.776053   0.33633259 
 2050000    149.93295   -82.443529   -82.772995   -82.772995   0.32946604 
 2051000    147.13491   -82.448673    -82.77199    -82.77199   0.32331756 
 2052000    144.09755    -82.45827   -82.774913   -82.774913   0.31664318 
 2053000    140.96238   -82.467662   -82.777416   -82.777416    0.3097539 
 2054000    138.17917   -82.470844   -82.774482   -82.774482   0.30363801 
 2055000    135.09221   -82.478434   -82.775289   -82.775289   0.29685466 
 2056000    132.06739   -82.482554   -82.772762   -82.772762   0.29020785 
 2057000    129.29087   -82.490244   -82.774351   -82.774351   0.28410666 
 2058000    126.00683   -82.499564   -82.776454   -82.776454   0.27689024 
 2059000    122.99546   -82.506564   -82.776837   -82.776837   0.27027299 
 2060000    120.20089   -82.511818    -82.77595    -82.77595   0.26413213 
 2061000    116.95927   -82.515965   -82.772974   -82.772974   0.25700892 
 2062000    114.10332   -82.525045   -82.775778   -82.775778   0.25073319 
 2063000     111.1785   -82.531472   -82.775778   -82.775778   0.24430614 
 2064000    108.00279   -82.539071   -82.776399   -82.776399   0.23732775 
 2065000    105.02063   -82.547244   -82.778019   -82.778019    0.2307747 
 2066000    102.10372   -82.548428   -82.772793   -82.772793     0.224365 
 2067000     98.98557   -82.558103   -82.775616   -82.775616   0.21751312 
 2068000    96.033968   -82.566344   -82.777371   -82.777371    0.2110272 
 2069000    93.213096   -82.570536   -82.775365   -82.775365   0.20482855 
 2070000    89.955402    -82.58068    -82.77835    -82.77835   0.19767002 
 2071000    87.158824   -82.587307   -82.778832   -82.778832   0.19152476 
 2072000    84.123502   -82.590603   -82.775458   -82.775458   0.18485487 
 2073000    80.987787   -82.600535   -82.778499   -82.778499   0.17796438 
 2074000    78.117593   -82.605015   -82.776672   -82.776672   0.17165735 
 2075000    75.020008   -82.612012   -82.776863   -82.776863   0.16485065 
 2076000    71.986821   -82.622591   -82.780776   -82.780776   0.15818546 
 2077000    69.069657   -82.625418   -82.777193   -82.777193   0.15177522 
 2078000    66.064352   -82.631326   -82.776497   -82.776497   0.14517129 
 2079000    63.006148   -82.640265   -82.778717   -82.778717   0.13845113 
 2080000    60.132492   -82.644479   -82.776616   -82.776616   0.13213649 
 2081000    57.052694   -82.654146   -82.779515   -82.779515   0.12536887 
 2082000    54.003885   -82.661004   -82.779674   -82.779674   0.11866935 
 2083000    51.160792   -82.665584   -82.778006   -82.778006   0.11242187 
 2084000    47.993789   -82.671814   -82.777277   -82.777277   0.10546263 
 2085000    45.218587   -82.680177   -82.779541   -82.779541  0.099364338 
 2086000    42.037739   -82.687582   -82.779956   -82.779956  0.092374672 
 2087000    39.058253   -82.694436   -82.780263   -82.780263  0.085827482 
 2088000    36.124864    -82.70092   -82.780302   -82.780302  0.079381587 
 2089000     33.01277   -82.706605   -82.779148   -82.779148  0.072543003 
 2090000    30.130548   -82.713928   -82.780138   -82.780138  0.066209542 
 2091000    27.034604   -82.722163   -82.781569   -82.781569  0.059406445 
 2092000    24.087537   -82.727637   -82.780567   -82.780567  0.052930495 
 2093000    21.092946    -82.73504    -82.78139    -82.78139  0.046350113 
 2094000    18.096355   -82.742498   -82.782264   -82.782264  0.039765337 
 2095000    15.053558   -82.747593   -82.780672   -82.780672  0.033079027 
 2096000    12.113115   -82.755742    -82.78236    -82.78236  0.026617632 
 2097000    9.0684561   -82.762669   -82.782596   -82.782596  0.019927229 
 2098000    6.0635551   -82.769256    -82.78258    -82.78258  0.013324192 
 2099000    3.0879081   -82.777066   -82.783851   -82.783851 0.0067854386 
 2100000  0.075197219   -82.784379   -82.784544   -82.784544 0.00016524006 
 2100015   0.02937868   -82.784488   -82.784552   -82.784552 6.4557371e-05 
Loop time of 61.1763 on 1 procs for 1000000 steps with 18 atoms

Performance: 141.231 ns/day, 0.170 hours/ns, 16346.201 timesteps/s
99.2% CPU use with 1 MPI tasks x 1 OpenMP threads

MPI task timing breakdown:
Section |  min time  |  avg time  |  max time  |%varavg| %total
---------------------------------------------------------------
Pair    | 48.618     | 48.618     | 48.618     |   0.0 | 79.47
Neigh   | 3.7937     | 3.7937     | 3.7937     |   0.0 |  6.20
Comm    | 1.1133     | 1.1133     | 1.1133     |   0.0 |  1.82
Output  | 0.57549    | 0.57549    | 0.57549    |   0.0 |  0.94
Modify  | 5.8779     | 5.8779     | 5.8779     |   0.0 |  9.61
Other   |            | 1.198      |            |       |  1.96

Nlocal:        18.0000 ave          18 max          18 min
Histogram: 1 0 0 0 0 0 0 0 0 0
Nghost:        16.0000 ave          16 max          16 min
Histogram: 1 0 0 0 0 0 0 0 0 0
Neighs:         0.00000 ave           0 max           0 min
Histogram: 1 0 0 0 0 0 0 0 0 0
FullNghs:      210.000 ave         210 max         210 min
Histogram: 1 0 0 0 0 0 0 0 0 0

Total # of neighbors = 210
Ave neighs/atom = 11.666667
Neighbor list builds = 41611
Dangerous builds = 0
write_restart 	./endconf/endconf*3.restart
System init for write_restart ...

Total wall time: 0:02:16
