LAMMPS (29 Sep 2021 - Update 2)
OMP_NUM_THREADS environment is not set. Defaulting to 1 thread. (src/comm.cpp:98)
  using 1 OpenMP thread(s) per MPI task
#============Initialization=================
units 			metal
atom_style 		atomic
boundary 		p p p

############################################
#              CLI Variables               #
############################################
variable 		seed index 625000          #
variable 		N index 18                 #
variable 		iter index 1000000         #
variable 		iterther index 100000      #
variable 		iexport index 1000         #
variable 		tempchauf index 3000       #
variable 		Tdamp index 0.001          #
variable 		timestep index 0.0001      #
variable 		box_size index 40		   #
############################################
############################################

#=========Simulation box definition=========
lattice 		sc 1.0
Lattice spacing in x,y,z = 1.0000000 1.0000000 1.0000000
region 			bigbox block 0 ${box_size} 0 ${box_size} 0 ${box_size}
region 			bigbox block 0 40 0 ${box_size} 0 ${box_size}
region 			bigbox block 0 40 0 40 0 ${box_size}
region 			bigbox block 0 40 0 40 0 40
create_box 		1 bigbox
Created orthogonal box = (0.0000000 0.0000000 0.0000000) to (40.000000 40.000000 40.000000)
  1 by 1 by 1 MPI processor grid

#==================Atoms====================
region 			safezone block 6 9 6 9 6 9 units box
create_atoms 	1 random ${N} ${seed} safezone
create_atoms 	1 random 18 ${seed} safezone
create_atoms 	1 random 18 625000 safezone
Created 18 atoms
  using lattice units in orthogonal box = (0.0000000 0.0000000 0.0000000) to (40.000000 40.000000 40.000000)
  create_atoms CPU = 0.000 seconds
mass 			* 12.01


#==========Velocity initialization==========
velocity 		all create 0.0000001 1563967 rot yes dist gaussian

#======Pair style for atom interactions=============
pair_style 		rebo
pair_coeff 		* * CH.rebo C
Reading rebo potential file CH.rebo with DATE: 2018-7-3

#==============Neighbor selection===================
neighbor 		2.0 bin
neigh_modify 	every 1 delay 0 check yes


#=====================Timestep======================
timestep 		${timestep}
timestep 		0.0001

#===============Define dump command=================
dump 			1 all cfg 100000 ./dump/dump.tensile_*.cfg mass type xs ys zs vx vy vz id

#========System temperature printing info===========
thermo_style 	custom step temp etotal epair pe ke
thermo 			${iexport}	# 1'000'000
thermo 			1000	


#====================CRC Cycle======================

#=============Condensation et chauffe===============
fix 			1 all nve
fix 			2 all temp/berendsen 0.0 ${tempchauf} ${Tdamp}
fix 			2 all temp/berendsen 0.0 3000 ${Tdamp}
fix 			2 all temp/berendsen 0.0 3000 0.001
fix             3 all momentum 1 linear 1 1 1 angular rescale

run 			${iter}
run 			1000000
Neighbor list info ...
  update every 1 steps, delay 0 steps, check yes
  max neighbors/atom: 2000, page size: 100000
  master list distance cutoff = 8
  ghost atom cutoff = 8
  binsize = 4, bins = 10 10 10
  1 neighbor lists, perpetual/occasional/extra = 1 0 0
  (1) pair rebo, perpetual
      attributes: full, newton on, ghost
      pair build: full/bin/ghost
      stencil: full/ghost/bin/3d
      bin: standard
Per MPI rank memory allocation (min/avg/max) = 5.149 | 5.149 | 5.149 Mbytes
Step Temp TotEng E_pair PotEng KinEng 
       0        1e-07    9823.5674    9823.5674    9823.5674 2.1974225e-10 
    1000    14.324034    -64.32367   -64.355146   -64.355146  0.031475954 
    2000     33.10257   -69.693831   -69.766571   -69.766571   0.07274033 
    3000     10.90649   -71.701852   -71.725818   -71.725818  0.023966165 
    4000    13.233625   -72.039243   -72.068323   -72.068323  0.029079866 
    5000    233.66133   -75.655021   -76.168474   -76.168474   0.51345266 
    6000    19.499867   -78.522615   -78.565465   -78.565465  0.042849446 
    7000    21.872761   -78.755619   -78.803683   -78.803683  0.048063697 
    8000     24.91145   -78.970887   -79.025628   -79.025628  0.054740979 
    9000    27.818856   -79.193456   -79.254586   -79.254586  0.061129779 
   10000    30.662595     -79.3743   -79.441678   -79.441678  0.067378675 
   11000    33.533136   -79.528991   -79.602677   -79.602677  0.073686466 
   12000    36.255199   -79.634752    -79.71442    -79.71442   0.07966799 
   13000    39.035562   -79.668965   -79.754742   -79.754742  0.085777621 
   14000    41.859595    -79.65808   -79.750063   -79.750063  0.091983215 
   15000    44.507207   -79.576445   -79.674246   -79.674246  0.097801137 
   16000    47.206244   -79.422545   -79.526277   -79.526277   0.10373206 
   17000    50.440974   -79.267312   -79.378153   -79.378153   0.11084013 
   18000    54.650001   -79.256955   -79.377044   -79.377044   0.12008914 
   19000    55.934997   -80.335025   -80.457938   -80.457938   0.12291282 
   20000    58.261186   -80.537976   -80.666001   -80.666001   0.12802444 
   21000    65.185698   -80.604372   -80.747613   -80.747613   0.14324052 
   22000    64.905482   -80.529337   -80.671961   -80.671961   0.14262476 
   23000    68.992017   -80.461556   -80.613161   -80.613161   0.15160461 
   24000    71.924351    -80.37092   -80.528968   -80.528968   0.15804818 
   25000    73.727611   -80.436219    -80.59823    -80.59823   0.16201071 
   26000    77.352169   -80.496565    -80.66654    -80.66654   0.16997539 
   27000    78.651825   -80.422593   -80.595424   -80.595424   0.17283129 
   28000    84.157417   -80.391347   -80.576276   -80.576276    0.1849294 
   29000    86.873114   -80.468854   -80.659751   -80.659751   0.19089693 
   30000    91.011497   -80.388257   -80.588247   -80.588247   0.19999071 
   31000    93.037315   -80.301583   -80.506025   -80.506025   0.20444229 
   32000    96.506902   -80.295842   -80.507908   -80.507908   0.21206644 
   33000    100.02555    -80.41074   -80.630538   -80.630538   0.21979839 
   34000    101.81358   -80.467572   -80.691299   -80.691299   0.22372745 
   35000    103.15489   -80.378569   -80.605244   -80.605244   0.22667487 
   36000    104.19786   -80.099227   -80.328194   -80.328194   0.22896671 
   37000    109.63113   -80.046666   -80.287572   -80.287572   0.24090591 
   38000     113.0773   -80.325445   -80.573924   -80.573924   0.24847859 
   39000    118.17343   -80.441327   -80.701004   -80.701004   0.25967695 
   40000    121.69143   -80.315788   -80.583195   -80.583195   0.26740748 
   41000     122.4267   -80.052522   -80.321545   -80.321545   0.26902318 
   42000    127.07853   -79.859568   -80.138814   -80.138814   0.27924521 
   43000    127.35933    -80.19679   -80.476652   -80.476652   0.27986225 
   44000    131.54703    -80.39426   -80.683324   -80.683324   0.28906441 
   45000    134.87385   -80.281282   -80.577657   -80.577657   0.29637482 
   46000    137.35817    -80.14852   -80.450354   -80.450354   0.30183392 
   47000    139.70882   -80.118039   -80.425038   -80.425038   0.30699929 
   48000    142.09982   -80.132314   -80.444568   -80.444568   0.31225333 
   49000    145.99452   -80.238636   -80.559448   -80.559448   0.32081164 
   50000    147.84667   -80.211841   -80.536722   -80.536722    0.3248816 
   51000    153.20341   -80.032104   -80.368757   -80.368757   0.33665263 
   52000    158.03766   -80.206839   -80.554114   -80.554114    0.3472755 
   53000    159.06774    -80.21664    -80.56618    -80.56618   0.34953903 
   54000    158.49177   -80.087111   -80.435384   -80.435384   0.34827337 
   55000    161.39582   -79.997191   -80.351846   -80.351846   0.35465481 
   56000    170.84597   -80.124037   -80.499458   -80.499458   0.37542078 
   57000    168.10853   -80.171242   -80.540647   -80.540647   0.36940545 
   58000    175.23079   -79.994297   -80.379353   -80.379353   0.38505607 
   59000    182.73401   -79.530719   -79.932263   -79.932263   0.40154381 
   60000    183.22503   -79.789106   -80.191729   -80.191729    0.4026228 
   61000    184.36689   -80.104249    -80.50938    -80.50938   0.40513195 
   62000    184.02399   -80.149207   -80.553586   -80.553586   0.40437845 
   63000    189.74907   -79.956587   -80.373546   -80.373546   0.41695887 
   64000    190.65317   -79.942208   -80.361154   -80.361154   0.41894555 
   65000     197.4843   -79.903681   -80.337637   -80.337637   0.43395643 
   66000    198.74806   -79.991987   -80.428721   -80.428721   0.43673345 
   67000    201.89991   -79.868621    -80.31228    -80.31228   0.44365941 
   68000    202.20391   -79.984979   -80.429307   -80.429307   0.44432742 
   69000    208.94694   -80.038826   -80.497971   -80.497971   0.45914471 
   70000    210.79119   -79.863628   -80.326825   -80.326825   0.46319729 
   71000    213.60318   -79.788358   -80.257734   -80.257734   0.46937642 
   72000    216.85013   -79.659044   -80.135556   -80.135556   0.47651135 
   73000    222.14942   -79.884706   -80.372862   -80.372862   0.48815613 
   74000    220.58946   -80.072177   -80.556906   -80.556906   0.48472825 
   75000    223.84864   -79.802894   -80.294784   -80.294784   0.49189002 
   76000    229.92447   -79.481458     -79.9867     -79.9867    0.5052412 
   77000    228.84828   -79.311557   -79.814434   -79.814434   0.50287635 
   78000    232.58757   -79.693196   -80.204289   -80.204289   0.51109315 
   79000    235.16938   -79.980907   -80.497673   -80.497673   0.51676647 
   80000    237.62211    -80.05918   -80.581336   -80.581336   0.52215616 
   81000    242.76862    -79.66094   -80.194405   -80.194405   0.53346522 
   82000    246.30819   -79.559388   -80.100632   -80.100632   0.54124314 
   83000    245.44258   -79.879802   -80.419143   -80.419143   0.53934104 
   84000    248.52864   -79.863931   -80.410054   -80.410054   0.54612241 
   85000    265.72495   -79.476337   -80.060247   -80.060247   0.58390997 
   86000    256.30439   -79.538667   -80.101876   -80.101876   0.56320902 
   87000    258.51471   -79.514243   -80.082309   -80.082309   0.56806604 
   88000    268.59336   -79.801282   -80.391495   -80.391495   0.59021308 
   89000    271.19248   -79.847896    -80.44382    -80.44382   0.59592445 
   90000    257.88063    -79.35344   -79.920113   -79.920113   0.56667269 
   91000    279.54431   -79.023939   -79.638216   -79.638216   0.61427695 
   92000    274.21095   -79.601459   -80.204017   -80.204017    0.6025573 
   93000    280.42746   -79.995796   -80.612014   -80.612014   0.61621761 
   94000    275.91707   -79.720949   -80.327255   -80.327255   0.60630637 
   95000    276.25326   -78.815183   -79.422228   -79.422228   0.60704511 
   96000    289.72197   -79.236985   -79.873627   -79.873627   0.63664156 
   97000    289.78135   -79.928674   -80.565446   -80.565446   0.63677206 
   98000    298.50964   -79.893216   -80.549167   -80.549167   0.65595179 
   99000    294.43431    -79.57065   -80.217647   -80.217647   0.64699656 
  100000    299.74817   -79.703395   -80.362068   -80.362068   0.65867336 
  101000    303.13957   -79.674057   -80.340183   -80.340183   0.66612571 
  102000    312.36257   -79.780642   -80.467035   -80.467035   0.68639254 
  103000    308.64529   -79.207209   -79.885433   -79.885433    0.6782241 
  104000    309.04146   -79.622607   -80.301702   -80.301702   0.67909465 
  105000    313.52403   -79.855538   -80.544483   -80.544483   0.68894475 
  106000     317.8956   -79.268454   -79.967004   -79.967004   0.69855093 
  107000    314.24574   -79.236388   -79.926918   -79.926918   0.69053064 
  108000    331.89453   -79.058317    -79.78763    -79.78763   0.72931249 
  109000    363.29985   -80.654908   -81.453231   -81.453231   0.79832325 
  110000    335.88537   -83.307579   -84.045661   -84.045661   0.73808205 
  111000    335.12562   -83.475814   -84.212226   -84.212226   0.73641257 
  112000    350.52651   -83.529573   -84.299828   -84.299828   0.77025483 
  113000     336.5075    -83.83084   -84.570289   -84.570289   0.73944915 
  114000    338.73027   -83.535813   -84.280147   -84.280147    0.7443335 
  115000    344.39796   -83.607087   -84.363875   -84.363875    0.7567878 
  116000    355.25482   -83.437193   -84.217838   -84.217838   0.78064493 
  117000    355.41513   -83.808652   -84.589649   -84.589649   0.78099719 
  118000    344.45152   -83.513008   -84.269913   -84.269913    0.7569055 
  119000    354.94508   -83.428694   -84.208658   -84.208658   0.77996428 
  120000    335.74892   -82.775357   -83.513139   -83.513139   0.73778222 
  121000    369.58546   -83.510414   -84.322549   -84.322549    0.8121354 
  122000    376.85381   -83.108929   -83.937036   -83.937036   0.82810704 
  123000     367.2455   -83.768025   -84.575018   -84.575018   0.80699351 
  124000    374.45282   -83.301591   -84.124422   -84.124422   0.82283103 
  125000    376.35045    -83.29366   -84.120661   -84.120661   0.82700093 
  126000    374.38431   -82.669186   -83.491866   -83.491866    0.8226805 
  127000    387.55309     -83.1956   -84.047218   -84.047218   0.85161787 
  128000    385.78386   -83.350163   -84.197893   -84.197893   0.84773011 
  129000    394.27619   -83.512315   -84.378707   -84.378707   0.86639137 
  130000    394.67365   -83.423946    -84.29121    -84.29121   0.86726474 
  131000     385.8106   -83.193579   -84.041367   -84.041367   0.84778887 
  132000    389.83356   -82.054319   -82.910948   -82.910948   0.85662901 
  133000    386.75875   -82.868689   -83.718562   -83.718562   0.84987237 
  134000    409.41773   -82.948757    -83.84842    -83.84842   0.89966371 
  135000    410.66272   -83.465709   -84.368109   -84.368109   0.90239948 
  136000    397.42544   -83.435017   -84.308329   -84.308329   0.87331158 
  137000    419.40247   -83.373134   -84.294738   -84.294738    0.9216044 
  138000    419.05258   -83.140769   -84.061604   -84.061604   0.92083554 
  139000    434.62895    -82.72275   -83.677813   -83.677813   0.95506343 
  140000    426.25058    -83.20684   -84.143492   -84.143492   0.93665261 
  141000    413.87073   -83.037156   -83.946604   -83.946604   0.90944883 
  142000    420.58258   -83.391504   -84.315701   -84.315701   0.92419762 
  143000     417.9753   -83.191603   -84.110071   -84.110071   0.91846832 
  144000    411.39404   -82.589871   -83.493878   -83.493878    0.9040065 
  145000    445.54456    -82.78803    -83.76708    -83.76708   0.97904963 
  146000      455.213   -82.762505   -83.762801   -83.762801    1.0002953 
  147000    424.29112   -83.137907   -84.070254   -84.070254   0.93234685 
  148000    449.65631   -83.603288   -84.591372   -84.591372   0.98808487 
  149000    433.45731   -83.110113   -84.062602   -84.062602   0.95248882 
  150000    445.50615   -82.921296   -83.900261   -83.900261   0.97896523 
  151000    461.40304   -82.705979   -83.719876   -83.719876    1.0138974 
  152000    454.32798   -82.981758   -83.980109   -83.980109   0.99835051 
  153000    455.17755   -83.243913   -84.244131   -84.244131    1.0002174 
  154000     466.1385   -83.167214   -84.191517   -84.191517    1.0243032 
  155000    444.04555   -82.795759   -83.771515   -83.771515   0.97575566 
  156000    466.68755   -82.926175   -83.951685   -83.951685    1.0255097 
  157000    477.98493   -82.854792   -83.905127   -83.905127    1.0503348 
  158000    449.92876   -82.510943   -83.499627   -83.499627   0.98868356 
  159000     501.2105   -82.862883   -83.964254   -83.964254    1.1013712 
  160000    497.07519   -82.585262   -83.677546   -83.677546    1.0922842 
  161000    477.46251   -83.274735   -84.323921   -84.323921    1.0491869 
  162000    484.11445    -83.02748   -84.091284   -84.091284     1.063804 
  163000    487.52717     -82.6528   -83.724103   -83.724103    1.0713032 
  164000    484.64688   -82.636194   -83.701168   -83.701168    1.0649739 
  165000    498.37602   -82.896855   -83.991997   -83.991997    1.0951427 
  166000    490.53189   -82.805199   -83.883104   -83.883104    1.0779058 
  167000    503.34215   -83.063744   -84.169799   -84.169799    1.1060554 
  168000    495.01367   -82.793569   -83.881323   -83.881323    1.0877542 
  169000    504.67893   -82.738627    -83.84762    -83.84762    1.1089928 
  170000    512.70578     -82.8955   -84.022132   -84.022132    1.1266312 
  171000    498.14729   -83.114981   -84.209621   -84.209621      1.09464 
  172000    524.08686    -82.75597    -83.90761    -83.90761    1.1516402 
  173000    534.19266   -82.848626   -84.022473   -84.022473     1.173847 
  174000     511.8312   -82.963809   -84.088518   -84.088518    1.1247094 
  175000    539.39431   -82.443187   -83.628465   -83.628465    1.1852772 
  176000    546.18557   -82.358058   -83.558259   -83.558259    1.2002004 
  177000    549.25902    -83.14722   -84.354174   -84.354174    1.2069541 
  178000    551.14761   -82.907496     -84.1186     -84.1186    1.2111041 
  179000    539.16851   -83.025693   -84.210474   -84.210474     1.184781 
  180000    545.82437   -82.843841   -84.043248   -84.043248    1.1994067 
  181000    548.62619   -83.109356    -84.31492    -84.31492    1.2055635 
  182000    538.93433    -82.90623   -84.090496   -84.090496    1.1842664 
  183000    563.97187   -82.720977   -83.960262   -83.960262    1.2392845 
  184000    579.67815   -82.434405   -83.708203   -83.708203    1.2737978 
  185000    572.52724   -82.580451   -83.838536   -83.838536    1.2580842 
  186000    568.23157   -82.510678   -83.759322   -83.759322    1.2486448 
  187000    599.07712   -82.812322   -84.128747   -84.128747    1.3164255 
  188000    559.30389   -82.783282   -84.012309   -84.012309    1.2290269 
  189000    583.75484   -82.592979   -83.875735   -83.875735     1.282756 
  190000    565.26456   -82.630054    -83.87218    -83.87218    1.2421251 
  191000    552.94242   -82.693354   -83.908402   -83.908402    1.2150481 
  192000    579.21641   -82.883294   -84.156077   -84.156077    1.2727832 
  193000        574.4   -82.705733   -83.967932   -83.967932    1.2621995 
  194000    581.24163   -82.351669   -83.628902   -83.628902    1.2772334 
  195000    569.97696   -82.400369   -83.652849   -83.652849    1.2524802 
  196000    580.72699   -82.202157   -83.478259   -83.478259    1.2761025 
  197000    562.63818   -82.676466    -83.91282    -83.91282    1.2363538 
  198000    586.65226   -82.609012   -83.898135   -83.898135    1.2891229 
  199000    581.12034   -82.469542   -83.746509   -83.746509    1.2769669 
  200000    581.21736   -82.108901   -83.386081   -83.386081    1.2771801 
  201000    578.39423   -82.532197   -83.803173   -83.803173    1.2709765 
  202000     596.1998   -83.131012   -84.441115   -84.441115    1.3101028 
  203000    607.70854    -83.05792   -84.393312   -84.393312    1.3353924 
  204000    610.88662   -82.824175   -84.166551   -84.166551     1.342376 
  205000    609.55231   -82.926629   -84.266073   -84.266073    1.3394439 
  206000    595.37744    -82.43404   -83.742335   -83.742335    1.3082958 
  207000    612.15187   -82.475219   -83.820375   -83.820375    1.3451563 
  208000    622.05196   -82.579701   -83.946612   -83.946612     1.366911 
  209000    616.28146   -82.959913   -84.314144   -84.314144    1.3542307 
  210000    621.29905   -83.003374    -84.36863    -84.36863    1.3652565 
  211000    612.84718    -82.45405   -83.800734   -83.800734    1.3466842 
  212000    652.91518   -86.069176   -87.503906   -87.503906    1.4347305 
  213000    640.67663   -85.423065   -86.830903   -86.830903    1.4078372 
  214000     673.6146    -85.38089   -86.861106   -86.861106    1.4802159 
  215000    668.06471   -85.074086   -86.542106   -86.542106    1.4680204 
  216000    659.15425   -85.226613   -86.675054   -86.675054    1.4484404 
  217000    676.93704   -85.422123    -86.90964    -86.90964    1.4875167 
  218000    631.19497   -84.888693   -86.275695   -86.275695     1.387002 
  219000     669.7272   -85.616584   -87.088258   -87.088258    1.4716736 
  220000    688.74598   -85.291903   -86.805369   -86.805369    1.5134659 
  221000    638.87521   -85.273822   -86.677701   -86.677701    1.4038787 
  222000    665.74938    -85.76296   -87.225893   -87.225893    1.4629327 
  223000    698.39155   -84.824468   -86.359129   -86.359129    1.5346613 
  224000      686.757   -85.491947   -87.001042   -87.001042    1.5090953 
  225000    711.86048   -85.840161   -87.404419   -87.404419    1.5642582 
  226000     669.8697   -85.671192   -87.143178   -87.143178    1.4719867 
  227000    659.64376   -84.965587   -86.415103   -86.415103     1.449516 
  228000    698.47205    -85.08282   -86.617658   -86.617658    1.5348382 
  229000    675.29368   -85.925643   -87.409549   -87.409549    1.4839055 
  230000    729.60989   -85.551276   -87.154537   -87.154537    1.6032612 
  231000    668.63489   -85.249803   -86.719077   -86.719077    1.4692733 
  232000    692.34885   -85.649635   -87.171018   -87.171018    1.5213829 
  233000    696.78965   -85.734149    -87.26529    -87.26529    1.5311412 
  234000    698.62851   -85.637958    -87.17314    -87.17314     1.535182 
  235000    688.88222   -85.151405    -86.66517    -86.66517    1.5137653 
  236000    710.70746   -85.675665    -87.23739    -87.23739    1.5617245 
  237000     731.5775   -85.626243   -87.233827   -87.233827    1.6075848 
  238000    699.67175   -85.525958   -87.063433   -87.063433    1.5374744 
  239000    723.85783   -85.499007   -87.089628   -87.089628    1.5906215 
  240000    734.66729   -85.669589   -87.283963   -87.283963    1.6143744 
  241000    706.31777   -85.610587   -87.162665   -87.162665    1.5520785 
  242000    696.74713    -85.20627   -86.737318   -86.737318    1.5310478 
  243000    732.47563   -85.394945   -87.004503   -87.004503    1.6095584 
  244000    734.64621   -85.854838   -87.469166   -87.469166    1.6143281 
  245000    735.28925   -85.413766   -87.029507   -87.029507    1.6157411 
  246000    717.37623   -85.483181   -87.059559   -87.059559    1.5763786 
  247000    732.74669   -85.835723   -87.445877   -87.445877     1.610154 
  248000    752.38872     -85.7323   -87.385615   -87.385615    1.6533159 
  249000    743.62318   -85.429462   -87.063516   -87.063516    1.6340543 
  250000    746.93757   -85.483079   -87.124416   -87.124416    1.6413374 
  251000    767.31866   -85.737109   -87.423232   -87.423232    1.6861233 
  252000    777.11841   -85.674206   -87.381863   -87.381863    1.7076575 
  253000    770.14672   -85.329163   -87.021501   -87.021501    1.6923377 
  254000    750.90425    -85.48834   -87.138393   -87.138393    1.6500539 
  255000    761.34125     -85.8367   -87.509688   -87.509688    1.6729884 
  256000    771.82419   -85.692149   -87.388173   -87.388173    1.6960238 
  257000    769.60355   -85.442503   -87.133647   -87.133647    1.6911441 
  258000    777.37078   -85.615986   -87.324198   -87.324198     1.708212 
  259000     782.7478   -86.061154   -87.781181   -87.781181    1.7200276 
  260000    781.55821   -85.602762   -87.320175   -87.320175    1.7174136 
  261000    792.50228   -85.385713   -87.127175   -87.127175    1.7414623 
  262000    782.65852   -85.905499    -87.62533    -87.62533    1.7198314 
  263000    784.19464   -85.804135   -87.527342   -87.527342    1.7232069 
  264000    791.41772   -85.486102   -87.225181   -87.225181    1.7390791 
  265000    793.37392     -85.4892   -87.232577   -87.232577    1.7433777 
  266000    798.65403   -85.591379   -87.346359   -87.346359    1.7549803 
  267000    786.78574   -85.917533   -87.646433   -87.646433    1.7289007 
  268000    789.93356   -85.408613   -87.144431   -87.144431    1.7358177 
  269000    786.62377   -85.438187   -87.166732   -87.166732    1.7285447 
  270000    807.11514   -85.797175   -87.570748   -87.570748    1.7735729 
  271000    826.07147   -85.707714   -87.522942   -87.522942     1.815228 
  272000    820.22806   -85.572077   -87.374465   -87.374465    1.8023876 
  273000    806.08041   -85.518858   -87.290157   -87.290157    1.7712992 
  274000    834.48069   -85.912622   -87.746328   -87.746328    1.8337066 
  275000    821.08201   -85.672477   -87.476741   -87.476741    1.8042641 
  276000     821.2125   -85.425653   -87.230204   -87.230204    1.8045508 
  277000    826.25594   -85.768317   -87.583951   -87.583951    1.8156334 
  278000    824.39634     -85.8077   -87.619247   -87.619247     1.811547 
  279000    819.13642   -85.398803   -87.198791   -87.198791    1.7999888 
  280000    827.02568   -85.202252   -87.019576   -87.019576    1.8173248 
  281000    835.50632   -85.809003   -87.644963   -87.644963    1.8359604 
  282000    837.98308   -85.812256   -87.653659   -87.653659    1.8414028 
  283000    836.31676   -85.438668   -87.276409   -87.276409    1.8377412 
  284000    843.75795   -85.458742   -87.312835   -87.312835    1.8540927 
  285000    872.13159   -85.743387   -87.659829   -87.659829    1.9164416 
  286000    855.04577   -85.626846   -87.505742   -87.505742    1.8788968 
  287000    854.08101   -85.609865   -87.486642   -87.486642    1.8767768 
  288000    861.18057   -85.780239   -87.672616   -87.672616    1.8923775 
  289000    865.67906   -85.766722   -87.668985   -87.668985    1.9022626 
  290000    885.07754   -85.542542   -87.487431   -87.487431    1.9448893 
  291000    877.96183   -85.572387    -87.50164    -87.50164    1.9292531 
  292000    880.09792   -85.872504   -87.806451   -87.806451    1.9339469 
  293000    887.43842   -85.735369   -87.685446   -87.685446    1.9500771 
  294000    883.33686   -85.591975   -87.533039   -87.533039    1.9410643 
  295000    871.89252    -85.57706   -87.492976   -87.492976    1.9159162 
  296000    885.72199   -85.788049   -87.734354   -87.734354    1.9463054 
  297000    890.51693   -85.701134   -87.657975   -87.657975    1.9568419 
  298000    883.49864   -85.416386   -87.357806   -87.357806    1.9414198 
  299000    889.93979   -85.610361   -87.565935   -87.565935    1.9555737 
  300000    896.19109   -85.622888   -87.592199   -87.592199    1.9693104 
  301000    897.08152   -85.321823    -87.29309    -87.29309    1.9712671 
  302000    898.68933   -85.522323   -87.497123   -87.497123    1.9748001 
  303000    900.40422   -85.846125   -87.824694   -87.824694    1.9785685 
  304000    906.21694   -85.687671   -87.679012   -87.679012    1.9913415 
  305000    906.33706   -85.496395   -87.488001   -87.488001    1.9916054 
  306000    927.39022    -85.45322   -87.491088   -87.491088    2.0378681 
  307000    915.87578   -85.623875   -87.636441   -87.636441     2.012566 
  308000    930.38738   -85.576959   -87.621413   -87.621413    2.0444541 
  309000    919.55346    -85.66246   -87.683108   -87.683108    2.0206474 
  310000    924.15865   -85.735966   -87.766733   -87.766733     2.030767 
  311000     929.5197   -85.710897   -87.753444   -87.753444    2.0425475 
  312000    924.29458   -85.247309   -87.278374   -87.278374    2.0310657 
  313000    935.35577   -85.624864   -87.680235   -87.680235    2.0553718 
  314000    946.56116   -85.692993   -87.772988   -87.772988    2.0799948 
  315000    944.78577   -85.620372   -87.696465   -87.696465    2.0760935 
  316000    945.73838   -85.469654    -87.54784    -87.54784    2.0781868 
  317000    957.03903   -85.471955   -87.574974   -87.574974    2.1030191 
  318000    951.13877   -85.723565   -87.813618   -87.813618    2.0900537 
  319000    946.57272   -85.586333   -87.666354   -87.666354    2.0800202 
  320000    962.66515   -85.645788    -87.76117    -87.76117     2.115382 
  321000    955.39247   -85.708405   -87.807806   -87.807806    2.0994009 
  322000     966.4437   -85.632756   -87.756441   -87.756441    2.1236851 
  323000    970.49428   -85.391725   -87.524311   -87.524311    2.1325859 
  324000     965.6925   -85.553983   -87.676018   -87.676018    2.1220344 
  325000    969.36205   -85.622798   -87.752896   -87.752896     2.130098 
  326000    980.54693   -85.452025   -87.606701   -87.606701    2.1546759 
  327000    985.05494   -85.574765   -87.739347   -87.739347    2.1645819 
  328000    981.03522   -85.656144   -87.811893   -87.811893    2.1557488 
  329000     982.1688    -85.43868    -87.59692    -87.59692    2.1582398 
  330000     983.7368   -85.495311   -87.656996   -87.656996    2.1616853 
  331000    998.06476   -85.686826   -87.879996   -87.879996    2.1931699 
  332000    999.80558   -85.637645    -87.83464    -87.83464    2.1969953 
  333000    995.48663   -85.529698   -87.717202   -87.717202    2.1875047 
  334000    997.76964   -85.473774   -87.666295   -87.666295    2.1925214 
  335000      1009.07   -85.524505   -87.741858   -87.741858    2.2173532 
  336000    1003.4659   -85.734823   -87.939862   -87.939862    2.2050384 
  337000    1001.3061     -85.4191   -87.619392   -87.619392    2.2002926 
  338000    1019.8679   -85.494509   -87.735589   -87.735589    2.2410807 
  339000    1011.8015   -85.680295    -87.90365    -87.90365    2.2233553 
  340000    1016.5362   -85.511161    -87.74492    -87.74492    2.2337596 
  341000    1032.3784     -85.3669   -87.635471   -87.635471    2.2685715 
  342000    1035.6871   -85.352425   -87.628267   -87.628267    2.2758421 
  343000    1027.6422   -85.586792   -87.844956   -87.844956     2.258164 
  344000    1027.4898   -85.378092   -87.635921   -87.635921    2.2578292 
  345000    1032.0318   -85.279421   -87.547231   -87.547231    2.2678099 
  346000     1040.037   -85.532766   -87.818167   -87.818167    2.2854006 
  347000    1045.2882   -85.466932   -87.763872   -87.763872    2.2969397 
  348000    1048.0068   -85.351533   -87.654447   -87.654447    2.3029137 
  349000    1043.9667   -85.487475   -87.781511   -87.781511    2.2940358 
  350000    1051.6658   -85.633314   -87.944268   -87.944268    2.3109541 
  351000     1052.162   -85.356575    -87.66862    -87.66862    2.3120445 
  352000    1055.7718   -85.330408   -87.650385   -87.650385    2.3199767 
  353000    1058.2055   -85.468484   -87.793808   -87.793808    2.3253245 
  354000    1063.7058    -85.50195   -87.839361   -87.839361    2.3374109 
  355000     1061.956    -85.41163   -87.745196   -87.745196    2.3335659 
  356000    1066.7853   -85.311529   -87.655707   -87.655707     2.344178 
  357000    1075.5438   -85.588225   -87.951649   -87.951649     2.363424 
  358000     1078.493   -85.418261   -87.788166   -87.788166    2.3699048 
  359000    1074.2837   -85.470464   -87.831119   -87.831119    2.3606551 
  360000    1072.9337   -85.428036   -87.785724   -87.785724    2.3576885 
  361000    1081.2878   -85.485182   -87.861228   -87.861228     2.376046 
  362000    1092.7513   -85.394821   -87.796058   -87.796058    2.4012362 
  363000    1087.3116    -85.37657   -87.765853   -87.765853    2.3892829 
  364000     1082.916   -85.515111   -87.894735   -87.894735    2.3796241 
  365000    1097.1857   -85.465821   -87.876802   -87.876802    2.4109805 
  366000    1095.4942   -85.340305   -87.747568   -87.747568    2.4072637 
  367000    1101.5926   -85.435707   -87.856371   -87.856371    2.4206643 
  368000    1098.3617   -85.429821   -87.843386   -87.843386    2.4135647 
  369000    1108.0124   -85.332649    -87.76742    -87.76742    2.4347714 
  370000    1117.6757   -85.390714    -87.84672    -87.84672    2.4560058 
  371000    1118.0122   -85.500449   -87.957194   -87.957194    2.4567451 
  372000    1115.3742   -85.468461   -87.919409   -87.919409    2.4509484 
  373000    1118.7082   -85.336481   -87.794756   -87.794756    2.4582745 
  374000    1119.7701   -85.419174   -87.879782   -87.879782     2.460608 
  375000     1127.902   -85.439753    -87.91823    -87.91823    2.4784771 
  376000    1123.0009   -85.488803    -87.95651    -87.95651    2.4677074 
  377000    1130.2464   -85.274192    -87.75782    -87.75782    2.4836288 
  378000    1141.0534     -85.4181   -87.925477   -87.925477    2.5073764 
  379000    1135.1801   -85.361704   -87.856174   -87.856174    2.4944704 
  380000    1136.4974   -85.286218   -87.783583   -87.783583    2.4973648 
  381000    1148.2244    -85.36801   -87.891144   -87.891144    2.5231342 
  382000     1146.637   -85.500663   -88.020309   -88.020309    2.5196459 
  383000    1162.4429   -85.295797   -87.850175   -87.850175     2.554378 
  384000    1154.5385   -85.222373   -87.759382   -87.759382    2.5370088 
  385000    1152.9988   -85.387431   -87.921057   -87.921057    2.5336255 
  386000    1156.5324     -85.4149    -87.95629    -87.95629    2.5413904 
  387000    1157.9628   -85.200006    -87.74454    -87.74454    2.5445335 
  388000    1165.8563   -85.342264   -87.904143   -87.904143    2.5618789 
  389000    1172.4808    -85.42703   -88.003466   -88.003466    2.5764357 
  390000    1174.9508   -85.231155   -87.813019   -87.813019    2.5818633 
  391000    1167.6834   -85.179062   -87.744956   -87.744956    2.5658938 
  392000    1170.1089   -85.360632   -87.931856   -87.931856    2.5712236 
  393000    1183.0924    -85.35691   -87.956663   -87.956663    2.5997538 
  394000    1178.4547   -85.188549   -87.778112   -87.778112    2.5895629 
  395000    1182.2485   -85.322419   -87.920318   -87.920318    2.5978993 
  396000    1192.4265   -85.256677   -87.876941   -87.876941    2.6202647 
  397000    1193.5607   -85.317937   -87.940695   -87.940695     2.622757 
  398000     1189.225   -85.229617   -87.842847   -87.842847    2.6132298 
  399000    1193.4727   -85.309479   -87.932043   -87.932043    2.6225637 
  400000    1196.6055   -85.339697   -87.969145   -87.969145    2.6294479 
  401000    1203.6678   -85.191212   -87.836179   -87.836179    2.6449666 
  402000    1207.9672   -85.253129   -87.907543   -87.907543    2.6544143 
  403000    1205.0404   -85.278594   -87.926577   -87.926577    2.6479828 
  404000    1207.7522   -85.222135   -87.876077   -87.876077    2.6539417 
  405000    1215.4704   -85.157018    -87.82792    -87.82792    2.6709019 
  406000    1211.6201   -85.167485   -87.829926   -87.829926    2.6624413 
  407000    1217.2464   -85.304068   -87.978873   -87.978873    2.6748045 
  408000    1220.6425   -85.178248   -87.860516   -87.860516    2.6822674 
  409000    1223.1555   -85.070119   -87.757909   -87.757909    2.6877894 
  410000    1229.5195   -85.218051   -87.919824   -87.919824    2.7017738 
  411000    1235.7353   -85.282229   -87.997661   -87.997661    2.7154326 
  412000    1234.5246   -85.206637   -87.919409   -87.919409     2.712772 
  413000    1236.9665   -85.125836   -87.843974   -87.843974    2.7181379 
  414000    1241.8918   -85.194307   -87.923268   -87.923268     2.728961 
  415000    1244.7848   -85.225943   -87.961261   -87.961261    2.7353181 
  416000    1238.4001   -85.176966   -87.898254   -87.898254    2.7212881 
  417000    1251.1725   -85.076081   -87.825435   -87.825435    2.7493545 
  418000    1255.2592   -85.282862   -88.041197   -88.041197    2.7583347 
  419000    1256.6862   -85.253704   -88.015174   -88.015174    2.7614704 
  420000    1266.9201   -85.138233   -87.922192   -87.922192    2.7839586 
  421000    1264.2082   -85.039246   -87.817245   -87.817245    2.7779995 
  422000    1232.9033   -87.729855   -90.439064   -90.439064    2.7092093 
  423000    1212.1953   -88.274981   -90.938686   -90.938686    2.6637051 
  424000    1220.2833   -88.043052    -90.72453    -90.72453    2.6814779 
  425000    1245.1092   -89.299922   -92.035953   -92.035953     2.736031 
  426000    1271.3577   -88.606581   -91.400291   -91.400291    2.7937099 
  427000    1254.2228   -87.610531   -90.366589   -90.366589    2.7560574 
  428000    1314.0221   -88.977095   -91.864557   -91.864557    2.8874618 
  429000    1284.3365   -88.876153   -91.698382   -91.698382    2.8222298 
  430000    1365.9272   -87.340301    -90.34182    -90.34182     3.001519 
  431000    1286.8652   -88.352494    -91.18028    -91.18028    2.8277864 
  432000    1222.8248   -88.205578   -90.892641   -90.892641    2.6870627 
  433000    1318.8462   -88.985866   -91.883928   -91.883928    2.8980623 
  434000    1301.2619   -88.374443   -91.233866   -91.233866    2.8594221 
  435000    1315.0446    -88.56036   -91.450069   -91.450069    2.8897086 
  436000    1309.9848   -88.731151   -91.609741   -91.609741    2.8785901 
  437000    1386.2805   -88.323562   -91.369806   -91.369806    3.0462439 
  438000    1238.4799   -89.250215   -91.971678   -91.971678    2.7214637 
  439000    1370.1516   -88.553819   -91.564621   -91.564621     3.010802 
  440000    1339.2698   -88.997622   -91.940564   -91.940564    2.9429416 
  441000    1393.1105   -88.411751   -91.473004   -91.473004    3.0612524 
  442000    1309.4089   -88.456924   -91.334249   -91.334249    2.8773245 
  443000    1356.8652   -88.499306   -91.480912   -91.480912     2.981606 
  444000    1357.6663   -88.869711   -91.853077   -91.853077    2.9833664 
  445000    1338.7034   -89.801036   -92.742733   -92.742733    2.9416968 
  446000    1296.1503   -88.980201   -91.828391   -91.828391    2.8481897 
  447000    1288.4491   -88.650735   -91.482001   -91.482001    2.8312669 
  448000    1330.1198   -89.473347   -92.396182   -92.396182    2.9228351 
  449000    1313.5381   -88.589665   -91.476063   -91.476063     2.886398 
  450000    1419.4415   -89.169323   -92.288436   -92.288436    3.1191126 
  451000     1393.215     -89.6054   -92.666882   -92.666882     3.061482 
  452000    1350.5424    -88.34086   -91.308572   -91.308572    2.9677122 
  453000    1384.3275   -88.935603   -91.977556   -91.977556    3.0419524 
  454000    1371.6197   -90.350508   -93.364536   -93.364536    3.0140279 
  455000    1375.8081   -89.450957   -92.474188   -92.474188    3.0232317 
  456000    1363.9473   -89.023024   -92.020192   -92.020192    2.9971684 
  457000    1351.3329   -89.273282   -92.242731   -92.242731    2.9694493 
  458000    1323.9984   -90.063183   -92.972567   -92.972567    2.9093839 
  459000    1408.4054   -89.356418   -92.451279   -92.451279    3.0948616 
  460000    1468.9397   -89.493314   -92.721195   -92.721195    3.2278812 
  461000     1395.106   -89.170116   -92.235753   -92.235753    3.0656373 
  462000    1379.7531   -89.347127   -92.379027   -92.379027    3.0319004 
  463000     1409.743   -89.673417   -92.771218   -92.771218     3.097801 
  464000    1398.5892   -90.086887   -93.160178   -93.160178    3.0732913 
  465000    1343.2673   -89.784181   -92.735907   -92.735907    2.9517257 
  466000    1388.1543   -89.417144   -92.467505   -92.467505    3.0503614 
  467000     1401.643   -89.828751   -92.908753   -92.908753    3.0800019 
  468000    1456.0431   -90.045638    -93.24518    -93.24518    3.1995418 
  469000     1391.382   -89.887281   -92.944735   -92.944735    3.0574541 
  470000    1425.5901   -89.953412   -93.086036   -93.086036    3.1326237 
  471000    1438.1447   -90.011035   -93.171246   -93.171246    3.1602114 
  472000    1424.0663   -89.717407   -92.846683   -92.846683    3.1292754 
  473000    1416.8624   -89.556396   -92.669841   -92.669841    3.1134452 
  474000    1418.9175    -90.12133   -93.239292   -93.239292    3.1179611 
  475000    1426.0397    -89.95188   -93.085491   -93.085491    3.1336117 
  476000    1408.1033   -90.163134   -93.257332   -93.257332    3.0941977 
  477000    1416.1448   -89.783061   -92.894929   -92.894929    3.1118684 
  478000    1400.1546   -90.346905   -93.423636   -93.423636    3.0767311 
  479000    1431.1454   -89.970546   -93.115377   -93.115377     3.144831 
  480000    1412.3495   -90.034039   -93.137567   -93.137567    3.1035286 
  481000    1435.6711   -90.252599   -93.407375   -93.407375    3.1547759 
  482000    1459.6105   -90.197309    -93.40469    -93.40469     3.207381 
  483000    1436.4225    -90.36496   -93.521387   -93.521387    3.1564271 
  484000    1421.4502   -90.083655   -93.207181   -93.207181    3.1235266 
  485000    1473.5734   -90.365625   -93.603688   -93.603688    3.2380634 
  486000    1455.7947   -90.038909   -93.237905   -93.237905     3.198996 
  487000    1453.1014   -90.236993   -93.430071   -93.430071    3.1930777 
  488000     1495.152   -90.279435   -93.564916   -93.564916    3.2854806 
  489000    1458.7788   -90.261255   -93.466808   -93.466808    3.2055532 
  490000    1459.5969   -90.117161   -93.324512   -93.324512    3.2073511 
  491000    1504.2619   -90.121647   -93.427146   -93.427146     3.305499 
  492000    1478.7714   -90.144974    -93.39446    -93.39446    3.2494856 
  493000     1476.148   -90.270753   -93.514473   -93.514473    3.2437207 
  494000    1443.6354   -90.370275   -93.542552   -93.542552    3.1722768 
  495000    1474.1555   -90.085858   -93.325201   -93.325201    3.2393425 
  496000    1484.2193   -90.361375   -93.622832   -93.622832    3.2614569 
  497000     1510.116   -90.118866   -93.437229   -93.437229    3.3183628 
  498000    1493.9353   -90.687656   -93.970463   -93.970463     3.282807 
  499000    1507.4284   -90.404219   -93.716676   -93.716676     3.312457 
  500000    1489.7038   -90.312208   -93.585716   -93.585716    3.2735086 
  501000    1492.5531   -90.189875   -93.469644   -93.469644    3.2797696 
  502000    1509.4129   -90.283727   -93.600545   -93.600545    3.3168178 
  503000     1517.828   -90.246784   -93.582093   -93.582093    3.3353094 
  504000    1516.6679    -90.53675   -93.869511   -93.869511    3.3327602 
  505000    1523.1509   -90.321636   -93.668642   -93.668642     3.347006 
  506000    1502.3458   -90.091361    -93.39265    -93.39265    3.3012884 
  507000    1520.3077   -90.244338   -93.585096   -93.585096    3.3407583 
  508000    1515.9832   -90.064188   -93.395443   -93.395443    3.3312554 
  509000    1525.6686   -90.295365   -93.647903   -93.647903    3.3525385 
  510000    1520.0046   -90.459019   -93.799111   -93.799111    3.3400923 
  511000    1540.8607   -90.374648   -93.760569   -93.760569    3.3859218 
  512000    1527.5421   -90.413371   -93.770026   -93.770026    3.3566554 
  513000     1526.761   -90.364998   -93.719937   -93.719937    3.3549389 
  514000     1542.709   -90.320932   -93.710915   -93.710915    3.3899834 
  515000    1550.7573   -90.465699   -93.873368   -93.873368    3.4076689 
  516000    1539.5312    -90.37768   -93.760681   -93.760681    3.3830005 
  517000     1566.004   -90.401208    -93.84238    -93.84238    3.4411724 
  518000    1561.3129   -90.309105   -93.739969   -93.739969    3.4308641 
  519000    1566.5362   -90.297094   -93.739436   -93.739436    3.4423418 
  520000    1570.6406   -90.156733   -93.608094   -93.608094    3.4513609 
  521000    1564.5089   -90.312207   -93.750094   -93.750094    3.4378871 
  522000    1575.8427    -90.40791   -93.870702   -93.870702    3.4627922 
  523000    1572.0333   -90.458298   -93.912719   -93.912719    3.4544214 
  524000    1575.9401   -90.196216   -93.659222   -93.659222    3.4630062 
  525000    1578.3465   -90.251323   -93.719617   -93.719617     3.468294 
  526000    1582.0703   -90.412272   -93.888748   -93.888748    3.4764769 
  527000    1572.4747   -90.249267   -93.704658   -93.704658    3.4553913 
  528000     1594.929   -90.210139   -93.714871   -93.714871    3.5047328 
  529000    1586.0858   -90.154674   -93.639974   -93.639974    3.4853005 
  530000    1593.7755   -90.375023   -93.877221   -93.877221    3.5021982 
  531000    1599.1342   -90.391167    -93.90514    -93.90514    3.5139734 
  532000    1603.1989   -90.317583   -93.840488   -93.840488    3.5229054 
  533000    1599.3554   -90.177627   -93.692086   -93.692086    3.5144596 
  534000    1605.3534    -90.14245   -93.670089   -93.670089    3.5276395 
  535000    1594.8173   -90.359002   -93.863489   -93.863489    3.5044873 
  536000    1609.4441   -90.061984   -93.598613   -93.598613    3.5366287 
  537000    1611.0017   -89.981765   -93.521816   -93.521816    3.5400513 
  538000    1616.2411   -90.266214   -93.817779   -93.817779    3.5515646 
  539000    1609.5155   -90.342217   -93.879002   -93.879002    3.5367856 
  540000    1617.7635   -89.823342   -93.378252   -93.378252    3.5549098 
  541000    1642.0872   -90.251169   -93.859528   -93.859528    3.6083593 
  542000    1624.2975   -90.351358   -93.920626   -93.920626    3.5692678 
  543000    1631.5203   -90.221502   -93.806642   -93.806642    3.5851393 
  544000    1651.5011   -90.073116   -93.702161   -93.702161    3.6290457 
  545000    1639.6025   -90.356317   -93.959216   -93.959216    3.6028993 
  546000    1638.9308   -90.362743   -93.964166   -93.964166    3.6014234 
  547000    1645.4247    -90.07502   -93.690713   -93.690713    3.6156932 
  548000    1646.0011   -90.318428   -93.935388   -93.935388    3.6169598 
  549000    1646.9021   -90.273201   -93.892141   -93.892141    3.6189397 
  550000    1644.6531   -90.164612    -93.77861    -93.77861    3.6139977 
  551000    1653.0645   -90.152003   -93.784484   -93.784484     3.632481 
  552000    1649.6965   -90.290344   -93.915424   -93.915424      3.62508 
  553000    1660.9915    -90.17956    -93.82946    -93.82946    3.6498999 
  554000    1672.9954   -90.135701   -93.811979   -93.811979    3.6762778 
  555000    1662.8431   -90.299411    -93.95338    -93.95338    3.6539687 
  556000    1667.8798   -90.107846   -93.772883   -93.772883    3.6650365 
  557000     1661.357   -90.162951   -93.813654   -93.813654    3.6507031 
  558000    1671.6059   -90.223524   -93.896748   -93.896748    3.6732243 
  559000    1668.3158   -90.068461   -93.734455   -93.734455    3.6659947 
  560000     1686.056   -90.025411   -93.730389   -93.730389    3.7049774 
  561000    1692.2116   -90.212184   -93.930687   -93.930687    3.7185039 
  562000    1692.9158   -90.174411   -93.894462   -93.894462    3.7200512 
  563000    1677.5882   -90.172572   -93.858942   -93.858942    3.6863699 
  564000    1687.2643   -90.201692   -93.909324   -93.909324    3.7076326 
  565000    1682.3138   -90.109809   -93.806563   -93.806563    3.6967541 
  566000     1705.047   -90.092702   -93.839411   -93.839411    3.7467085 
  567000    1689.2872   -90.159303   -93.871381   -93.871381    3.7120776 
  568000    1696.1634   -90.102631   -93.829818   -93.829818    3.7271876 
  569000     1694.461    -90.19868   -93.922126   -93.922126    3.7234466 
  570000    1704.1163   -90.127656   -93.872319   -93.872319    3.7446635 
  571000    1719.1379   -90.192145   -93.969817   -93.969817    3.7776722 
  572000    1708.1876   -90.252805   -94.006415   -94.006415    3.7536098 
  573000    1715.4806   -90.056919   -93.826555   -93.826555    3.7696356 
  574000    1725.7779   -90.163579   -93.955843   -93.955843    3.7922632 
  575000    1717.6803   -90.227691    -94.00216    -94.00216    3.7744693 
  576000     1729.582   -90.220831   -94.021453   -94.021453    3.8006224 
  577000    1726.0652   -90.164902   -93.957796   -93.957796    3.7928943 
  578000    1729.1353   -90.074157   -93.873798   -93.873798    3.7996407 
  579000    1739.8116   -90.144962   -93.968063   -93.968063    3.8231012 
  580000    1750.5963   -90.239818   -94.086618   -94.086618    3.8467997 
  581000    1733.8566   -90.081377   -93.891393   -93.891393    3.8100153 
  582000    1756.9091   -90.110291   -93.970962   -93.970962    3.8606714 
  583000     1737.559   -90.112658    -93.93081    -93.93081    3.8181511 
  584000    1757.7867   -90.067479   -93.930079   -93.930079       3.8626 
  585000    1761.8499   -90.166836   -94.038365   -94.038365    3.8715286 
  586000    1751.4749   -90.050243   -93.898974   -93.898974    3.8487303 
  587000    1764.1894   -90.125087   -94.001756   -94.001756    3.8766694 
  588000     1774.579   -90.072761   -93.972261   -93.972261    3.8994997 
  589000    1764.8503   -89.997012   -93.875134   -93.875134    3.8781218 
  590000    1770.5189   -90.106019   -93.996597   -93.996597    3.8905781 
  591000    1769.2935   -90.034463   -93.922348   -93.922348    3.8878853 
  592000    1775.6569   -90.100437   -94.002305   -94.002305    3.9018683 
  593000    1781.5846   -90.094711   -94.009605   -94.009605     3.914894 
  594000    1784.4469    -90.05677   -93.977953   -93.977953    3.9211837 
  595000    1791.9944    -90.03371   -93.971479   -93.971479    3.9377687 
  596000    1794.0866   -90.103871   -94.046237   -94.046237    3.9423662 
  597000    1787.1333   -90.031989   -93.959076   -93.959076    3.9270869 
  598000    1797.3255   -90.116606    -94.06609    -94.06609    3.9494835 
  599000    1793.1281   -90.040485   -93.980745   -93.980745      3.94026 
  600000     1795.403   -89.967662   -93.912921   -93.912921    3.9452589 
  601000    1802.8017   -89.991535   -93.953052   -93.953052    3.9615169 
  602000    1802.8581   -90.079596   -94.041237   -94.041237    3.9616408 
  603000    1809.4153   -90.030156   -94.006206   -94.006206    3.9760498 
  604000    1808.6803   -89.959992   -93.934427   -93.934427    3.9744347 
  605000    1815.0051   -89.980128   -93.968461   -93.968461     3.988333 
  606000    1820.2778    -89.95438   -93.954299   -93.954299    3.9999192 
  607000    1820.2885   -89.932961   -93.932904   -93.932904    3.9999428 
  608000    1814.8849   -90.060561    -94.04863    -94.04863    3.9880689 
  609000    1832.0468   -90.029345   -94.055126   -94.055126    4.0257808 
  610000    1826.1183   -89.975861   -93.988615   -93.988615    4.0127533 
  611000    1841.8243   -89.980238   -94.027504   -94.027504    4.0472662 
  612000    1835.5409   -90.046381    -94.07984    -94.07984    4.0334587 
  613000    1828.9705   -90.062928   -94.081949   -94.081949    4.0190209 
  614000    1840.8608   -90.062792   -94.107941   -94.107941    4.0451489 
  615000    1849.2277   -90.076205    -94.13974    -94.13974    4.0635346 
  616000      1847.08    -90.01697   -94.075785   -94.075785     4.058815 
  617000    1848.3897   -89.888043   -93.949736   -93.949736     4.061693 
  618000    1857.5777   -89.930294   -94.012177   -94.012177     4.081883 
  619000    1861.2756   -89.935677   -94.025686   -94.025686    4.0900088 
  620000    1852.3975   -89.986197   -94.056697   -94.056697    4.0704998 
  621000    1866.9757   -89.939284   -94.041819   -94.041819    4.1025344 
  622000    1873.2753   -89.919406   -94.035783   -94.035783    4.1163771 
  623000    1869.3964   -89.913799   -94.021653   -94.021653    4.1078537 
  624000    1869.3169   -89.932026   -94.039705   -94.039705    4.1076789 
  625000    1877.2636   -89.886807   -94.011949   -94.011949    4.1251413 
  626000    1879.5756   -89.941834   -94.072056   -94.072056    4.1302216 
  627000    1886.3053   -89.906447   -94.051457   -94.051457    4.1450097 
  628000    1887.0222   -89.939533   -94.086118   -94.086118     4.146585 
  629000    1890.0295   -89.852714   -94.005908   -94.005908    4.1531933 
  630000    1889.7816   -89.887849   -94.040497   -94.040497    4.1526486 
  631000    1895.5913   -89.924682   -94.090097   -94.090097     4.165415 
  632000    1900.0911   -89.824921   -94.000224   -94.000224    4.1753028 
  633000    1898.9403   -89.879793   -94.052567   -94.052567    4.1727742 
  634000    1897.2171   -89.845655   -94.014643   -94.014643    4.1689876 
  635000     1911.714   -89.824552   -94.025396   -94.025396    4.2008434 
  636000    1910.9271   -89.886666    -94.08578    -94.08578    4.1991142 
  637000    1905.2305    -89.92362   -94.110216   -94.110216    4.1865962 
  638000    1914.2297   -89.809332   -94.015703   -94.015703    4.2063714 
  639000    1922.1222   -89.817998   -94.041712   -94.041712    4.2237145 
  640000    1918.6687   -89.845955    -94.06208    -94.06208    4.2161257 
  641000    1927.6032   -89.810196   -94.045954   -94.045954    4.2357587 
  642000    1925.5755   -89.845378    -94.07668    -94.07668    4.2313028 
  643000    1933.5132   -89.895129   -94.143875   -94.143875    4.2487452 
  644000    1927.0678   -89.857626   -94.092208   -94.092208     4.234582 
  645000    1939.8166   -89.681937   -93.944533   -93.944533    4.2625965 
  646000    1932.1131   -89.831743   -94.077411   -94.077411    4.2456687 
  647000    1940.8379   -89.784002   -94.048843   -94.048843    4.2648408 
  648000    1943.3765   -89.779575   -94.049994   -94.049994    4.2704191 
  649000    1951.0924   -89.784903   -94.072278   -94.072278    4.2873743 
  650000    1949.3638   -89.774173   -94.057748   -94.057748    4.2835759 
  651000    1955.5438   -89.684454    -93.98161    -93.98161     4.297156 
  652000    1954.6667    -89.77887   -94.074098   -94.074098    4.2952285 
  653000     1958.012    -89.90532   -94.207899   -94.207899    4.3025796 
  654000    1959.3408   -89.760196   -94.065696   -94.065696    4.3054995 
  655000    1965.5502   -89.802375   -94.121519   -94.121519    4.3191443 
  656000    1961.9745   -89.745998   -94.057285   -94.057285    4.3112869 
  657000     1972.195   -89.715002   -94.048747   -94.048747    4.3337455 
  658000    1974.0053    -89.67577   -94.013493   -94.013493    4.3377236 
  659000    1981.1483    -89.74854    -94.10196    -94.10196    4.3534198 
  660000     1980.526   -89.864527   -94.216579   -94.216579    4.3520523 
  661000     1986.751   -89.691844   -94.057575   -94.057575    4.3657313 
  662000    1984.7853   -89.728352   -94.089764   -94.089764    4.3614117 
  663000    1986.5345   -89.699875    -94.06513    -94.06513    4.3652555 
  664000    1993.1274   -89.627699   -94.007442   -94.007442    4.3797428 
  665000    1996.6943   -89.717327   -94.104908   -94.104908    4.3875808 
  666000    1998.0663   -89.786843   -94.177439   -94.177439    4.3905959 
  667000    2000.0345   -89.720957   -94.115878   -94.115878    4.3949207 
  668000    2002.2601   -89.605918    -94.00573    -94.00573    4.3998114 
  669000    2005.4052   -89.608297   -94.015019   -94.015019    4.4067223 
  670000    2009.8518    -89.78835   -94.204844   -94.204844    4.4164935 
  671000    2008.5879   -89.730582   -94.144299   -94.144299    4.4137161 
  672000    2013.6174    -89.67096   -94.095728   -94.095728     4.424768 
  673000    2022.1504   -89.608258   -94.051777   -94.051777    4.4435186 
  674000    2013.2467   -89.619306    -94.04326    -94.04326    4.4239536 
  675000    2024.5308   -89.630605   -94.079355   -94.079355    4.4487494 
  676000     2027.872    -89.62975   -94.085842   -94.085842    4.4560916 
  677000    2037.7178   -89.660223    -94.13795    -94.13795    4.4777269 
  678000    2030.4254   -89.623861   -94.085564   -94.085564    4.4617025 
  679000    2039.4796   -89.611235   -94.092833   -94.092833    4.4815982 
  680000    2040.0114   -89.559128   -94.041894   -94.041894    4.4827669 
  681000    2040.1572   -89.645397   -94.128485   -94.128485    4.4830873 
  682000    2044.8539   -89.664849   -94.158257   -94.158257    4.4934079 
  683000    2045.3903   -89.571322   -94.065909   -94.065909    4.4945865 
  684000    2051.5108    -89.53483   -94.042866   -94.042866    4.5080358 
  685000    2055.9786   -89.540515   -94.058369   -94.058369    4.5178535 
  686000    2054.6733   -89.625327   -94.140312   -94.140312    4.5149853 
  687000    2058.3713   -89.549263   -94.072375   -94.072375    4.5231113 
  688000    2064.7351   -89.564397   -94.101492   -94.101492    4.5370953 
  689000    2063.5552   -89.490486   -94.024988   -94.024988    4.5345025 
  690000    2067.4948    -89.59829   -94.141449   -94.141449    4.5431596 
  691000    2077.4631   -89.543493   -94.108557   -94.108557    4.5650642 
  692000     2076.771   -89.476291   -94.039834   -94.039834    4.5635433 
  693000    2080.5748   -89.491901   -94.063803   -94.063803    4.5719018 
  694000    2080.8559   -89.579265   -94.151784   -94.151784    4.5725195 
  695000    2084.6614   -89.579238    -94.16012    -94.16012    4.5808817 
  696000     2086.474   -89.480207   -94.065072   -94.065072    4.5848649 
  697000    2086.9357   -89.373503   -93.959382   -93.959382    4.5858795 
  698000    2088.7469   -89.471351   -94.061211   -94.061211    4.5898594 
  699000     2097.394   -89.473542   -94.082403   -94.082403    4.6088607 
  700000     2100.291   -89.511446   -94.126672   -94.126672    4.6152265 
  701000    2104.1183   -89.445416   -94.069053   -94.069053    4.6236368 
  702000    2108.7409   -89.537583   -94.171378   -94.171378    4.6337947 
  703000    2109.5257   -89.515861   -94.151381   -94.151381    4.6355192 
  704000    2114.0977   -89.494053   -94.139618   -94.139618    4.6455657 
  705000    2113.5384   -89.483604    -94.12794    -94.12794    4.6443367 
  706000    2112.3409    -89.54941   -94.191116   -94.191116    4.6417054 
  707000    2114.5635   -89.454002   -94.100591   -94.100591    4.6465894 
  708000    2123.0651   -89.351982   -94.017253   -94.017253     4.665271 
  709000    2128.5913   -89.312186     -93.9896     -93.9896    4.6774144 
  710000     2130.836     -89.4153   -94.097647   -94.097647    4.6823469 
  711000    2129.5386   -89.384823   -94.064319   -94.064319     4.679496 
  712000     2138.285   -89.388257   -94.086973   -94.086973    4.6987156 
  713000    2138.5039   -89.311497   -94.010694   -94.010694    4.6991965 
  714000    2136.4732    -89.45338   -94.148115   -94.148115    4.6947342 
  715000    2143.8443   -89.286776   -93.997708   -93.997708    4.7109317 
  716000    2152.0785   -89.442666   -94.171692   -94.171692    4.7290256 
  717000     2149.967   -89.373109   -94.097495   -94.097495    4.7243858 
  718000    2155.1463   -89.402093    -94.13786    -94.13786    4.7357668 
  719000    2158.8005   -89.341468   -94.085265   -94.085265    4.7437968 
  720000    2162.5847    -89.31677   -94.068882   -94.068882    4.7521123 
  721000     2162.473   -89.373252   -94.125119   -94.125119    4.7518668 
  722000    2161.7639   -89.391418   -94.141726   -94.141726    4.7503085 
  723000    2167.1898   -89.323622   -94.085853   -94.085853    4.7622315 
  724000    2174.9063   -89.338229   -94.117417   -94.117417     4.779188 
  725000    2176.7484   -89.231445   -94.014681   -94.014681    4.7832358 
  726000    2173.6142   -89.365399   -94.141747   -94.141747    4.7763486 
  727000    2179.3159   -89.369037   -94.157914   -94.157914    4.7888778 
  728000    2186.2201    -89.32672   -94.130769   -94.130769    4.8040491 
  729000    2181.9068   -89.268192   -94.062763   -94.062763    4.7945709 
  730000    2193.0962   -89.257315   -94.076474   -94.076474    4.8191588 
  731000    2201.7727   -89.235547   -94.073772   -94.073772    4.8382248 
  732000    2194.1607   -89.261522    -94.08302    -94.08302     4.821498 
  733000     2196.156   -89.185882   -94.011765   -94.011765    4.8258825 
  734000     2201.837   -89.324847   -94.163213   -94.163213    4.8383661 
  735000    2203.9907   -89.266966   -94.110064   -94.110064    4.8430987 
  736000    2206.1061   -89.234085   -94.081832   -94.081832    4.8477471 
  737000    2214.6302   -89.158712    -94.02519    -94.02519    4.8664781 
  738000    2215.0372   -89.221307   -94.088679   -94.088679    4.8673725 
  739000    2209.9449   -89.276621   -94.132804   -94.132804    4.8561826 
  740000    2217.6677   -89.234618   -94.107771   -94.107771    4.8731528 
  741000    2229.1359   -89.099896    -93.99825    -93.99825    4.8983533 
  742000    2224.2926   -89.254112   -94.141823   -94.141823    4.8877105 
  743000    2226.8723   -89.187085   -94.080464   -94.080464    4.8933792 
  744000    2231.3351   -89.253411   -94.156597   -94.156597    4.9031859 
  745000    2237.8061   -89.138979   -94.056384   -94.056384    4.9174053 
  746000    2354.5621   -86.441553   -91.615521   -91.615521    5.1739677 
  747000    2132.7224   -88.234767   -92.921259   -92.921259    4.6864922 
  748000    2216.3858   -90.135643   -95.005979   -95.005979    4.8703359 
  749000    2265.6732   -88.182254   -93.160896   -93.160896    4.9786413 
  750000    2183.7282   -88.733011   -93.531584   -93.531584    4.7985733 
  751000    2251.3088   -87.012446   -91.959523   -91.959523    4.9470766 
  752000    2226.2683   -88.053461   -92.945513   -92.945513    4.8920519 
  753000    2203.2175   -89.253811   -94.095211   -94.095211    4.8413996 
  754000    2244.2927   -90.572399   -95.504058   -95.504058    4.9316593 
  755000     2181.682   -90.438999   -95.233076   -95.233076    4.7940771 
  756000    2329.4479   -89.784933   -94.903714   -94.903714    5.1187811 
  757000    2338.9695   -90.817411   -95.957115   -95.957115    5.1397041 
  758000    2315.3181   -90.202424   -95.290156   -95.290156     5.087732 
  759000    2221.2472   -89.849794   -94.730813   -94.730813    4.8810186 
  760000    2334.3735   -89.767789   -94.897394   -94.897394    5.1296047 
  761000    2264.5885   -90.122804   -95.099061   -95.099061    4.9762575 
  762000    2057.1683   -91.809681   -96.330149   -96.330149    4.5204679 
  763000    2321.7716   -92.753208   -97.855122   -97.855122    5.1019131 
  764000     2168.538   -89.755654   -94.520848   -94.520848    4.7651941 
  765000    2333.4853    -92.11965   -97.247303   -97.247303    5.1276529 
  766000    2305.7135   -92.953596   -98.020223   -98.020223    5.0666267 
  767000      2271.09   -92.796392   -97.786937   -97.786937    4.9905443 
  768000    2298.3719   -92.301975   -97.352469   -97.352469     5.050494 
  769000    2486.5363    -94.34968   -99.813651   -99.813651    5.4639708 
  770000    2386.9579   -91.218354   -96.463509   -96.463509    5.2451548 
  771000    2420.4305   -89.774406   -95.093114   -95.093114    5.3187083 
  772000    2371.2577   -95.128056   -100.33871   -100.33871    5.2106548 
  773000     2287.047   -93.762243   -98.787852   -98.787852    5.0256084 
  774000    2334.7053   -92.802962   -97.933296   -97.933296     5.130334 
  775000    2467.1506    -91.03288   -96.454252   -96.454252    5.4213721 
  776000    2422.9924   -92.633038   -97.957376   -97.957376    5.3243379 
  777000    2341.1948   -93.217973   -98.362567   -98.362567    5.1445941 
  778000    2333.0174   -89.765609   -94.892234   -94.892234    5.1266249 
  779000    2388.9175   -93.862391   -99.111852   -99.111852     5.249461 
  780000    2395.5978   -91.287832   -96.551973   -96.551973    5.2641404 
  781000    2228.7007   -90.927865   -95.825262   -95.825262    4.8973971 
  782000    2419.7457   -93.940659   -99.257863   -99.257863    5.3172035 
  783000    2327.2341   -91.152434    -96.26635    -96.26635    5.1139166 
  784000    2353.2127    -93.72453   -98.895533   -98.895533    5.1710025 
  785000    2379.8716    -91.61853   -96.848114   -96.848114    5.2295834 
  786000    2355.0664   -92.673752   -97.848828   -97.848828    5.1750759 
  787000    2334.4001   -92.065461   -97.195124   -97.195124    5.1296631 
  788000    2487.6775   -90.485565   -95.952043   -95.952043    5.4664785 
  789000    2324.3193   -90.117708   -95.225219   -95.225219    5.1075115 
  790000    2393.2086    -93.58375    -98.84264    -98.84264    5.2588904 
  791000    2410.1421    -93.21386    -98.50996    -98.50996    5.2961003 
  792000    2338.6611   -93.920808   -99.059835   -99.059835    5.1390265 
  793000    2440.7827   -92.120007   -97.483438   -97.483438    5.3634308 
  794000     2290.889   -91.637476   -96.671527   -96.671527    5.0340508 
  795000    2376.8426   -92.502805   -97.725732   -97.725732    5.2229274 
  796000    2383.8644   -91.239715   -96.478072   -96.478072    5.2383572 
  797000    2438.6409   -90.521012   -95.879737   -95.879737    5.3587244 
  798000    2247.9742   -90.975438   -95.915187   -95.915187    4.9397491 
  799000    2454.5843   -92.215059   -97.608818   -97.608818    5.3937587 
  800000    2487.1197   -93.888597    -99.35385    -99.35385    5.4652528 
  801000    2506.2387   -90.969539   -96.476804   -96.476804    5.5072653 
  802000    2487.7284   -91.710391   -97.176981   -97.176981    5.4665902 
  803000    2296.4439   -91.872569   -96.918826   -96.918826    5.0462574 
  804000    2379.1804   -91.356469   -96.584533   -96.584533    5.2280644 
  805000    2438.8278    -93.74175   -99.100885   -99.100885     5.359135 
  806000    2437.7085   -90.489472   -95.846147   -95.846147    5.3566754 
  807000    2416.4242   -93.756434   -99.066339   -99.066339    5.3099049 
  808000    2353.3098   -90.836327   -96.007542   -96.007542    5.1712159 
  809000    2417.0825    -91.88957   -97.200921   -97.200921    5.3113513 
  810000    2399.2707   -92.946101   -98.218312   -98.218312    5.2722114 
  811000    2407.5181   -91.035356   -96.325691   -96.325691    5.2903344 
  812000    2400.6188   -93.482363   -98.757537   -98.757537    5.2751737 
  813000    2538.2684   -91.924016   -97.501664   -97.501664    5.5776479 
  814000    2559.9503   -90.079458   -95.704751   -95.704751    5.6252924 
  815000    2419.5402   -90.560015   -95.876767   -95.876767    5.3167519 
  816000    2444.1461   -92.092132   -97.462953   -97.462953    5.3708215 
  817000    2437.9593   -91.809161   -97.166388   -97.166388    5.3572266 
  818000    2324.2254   -92.917615    -98.02492    -98.02492    5.1073052 
  819000    2491.8043   -92.627445   -98.102991   -98.102991    5.4755467 
  820000    2377.8299    -89.58841   -94.813507   -94.813507    5.2250968 
  821000    2587.5005   -89.426465   -95.112297   -95.112297    5.6858317 
  822000    2431.6511   -93.149657   -98.493022   -98.493022    5.3433647 
  823000    2457.2674   -92.774246     -98.1739     -98.1739    5.3996546 
  824000    2455.4029   -92.460297   -97.855854   -97.855854    5.3955574 
  825000    2702.5946   -88.675897   -94.614639   -94.614639    5.9387422 
  826000    2532.5396   -91.825038   -97.390097   -97.390097    5.5650593 
  827000    2465.0816   -92.466676   -97.883501   -97.883501    5.4168256 
  828000    2557.9289   -92.131235   -97.752086   -97.752086    5.6208505 
  829000    2627.7369    -90.72918   -96.503428   -96.503428     5.774248 
  830000    2565.5346   -90.569119   -96.206683   -96.206683    5.6375634 
  831000    2501.1152    -92.63461   -98.130617   -98.130617    5.4960068 
  832000     2477.473   -94.186924   -99.630978   -99.630978    5.4440547 
  833000    2401.8472   -91.729591   -97.007464   -97.007464    5.2778729 
  834000    2494.3357   -91.305691     -96.7868     -96.7868    5.4811092 
  835000    2495.4043   -92.139361   -97.622819   -97.622819    5.4834575 
  836000      2693.25   -90.953295   -96.871503   -96.871503    5.9182081 
  837000    2442.2355   -93.612741   -98.979364   -98.979364    5.3666231 
  838000    2530.8214   -92.008394   -97.569678   -97.569678    5.5612837 
  839000    2505.5284   -91.137492   -96.643197   -96.643197    5.5057043 
  840000    2476.2614   -92.767725   -98.209117   -98.209117    5.4413924 
  841000    2532.1609   -92.108992   -97.673219   -97.673219    5.5642271 
  842000    2532.5202   -91.525469   -97.090486   -97.090486    5.5650168 
  843000    2450.0675    -92.24384   -97.627673   -97.627673    5.3838333 
  844000    2544.2402   -91.391863   -96.982633   -96.982633    5.5907706 
  845000    2444.7554   -91.567704   -96.939865   -96.939865    5.3721605 
  846000    2426.2333   -91.520339   -96.851798   -96.851798    5.3314596 
  847000    2526.5754   -90.659058   -96.211011   -96.211011    5.5519535 
  848000     2709.678   -91.352916   -97.307224   -97.307224    5.9543073 
  849000    2562.5502   -92.990992   -98.621998   -98.621998    5.6310054 
  850000    2556.1235   -93.701183   -99.318067   -99.318067    5.6168833 
  851000    2491.7182   -91.130045   -96.605403   -96.605403    5.4753577 
  852000    2516.2699   -93.435698   -98.965006   -98.965006     5.529308 
  853000    2457.3907   -90.028834   -95.428759   -95.428759    5.3999256 
  854000    2612.2829   -89.631311     -95.3716     -95.3716    5.7402892 
  855000    2478.8525    -89.16009   -94.607176   -94.607176    5.4470862 
  856000    2414.2994   -92.916527   -98.221763   -98.221763    5.3052358 
  857000     2521.022   -91.119202   -96.658953   -96.658953    5.5397505 
  858000    2663.0954   -90.644628   -96.496573   -96.496573    5.8519458 
  859000    2600.7057   -93.424369   -99.139218   -99.139218    5.7148491 
  860000    2578.1735   -93.404714   -99.070051   -99.070051    5.6653364 
  861000    2602.8388   -91.928814   -97.648351   -97.648351    5.7195365 
  862000    2542.4404   -92.674757   -98.261573   -98.261573    5.5868157 
  863000    2680.1933   -88.779399   -94.668916   -94.668916    5.8895169 
  864000    2536.0101   -92.182672   -97.755358   -97.755358    5.5726856 
  865000    2687.1935   -91.490139   -97.395038   -97.395038    5.9048994 
  866000    2539.5838   -90.501151   -96.081689   -96.081689    5.5805384 
  867000    2559.2894   -93.570779   -99.194619   -99.194619    5.6238401 
  868000    2533.6636   -93.958309   -99.525838   -99.525838    5.5675293 
  869000    2593.6188   -92.004017   -97.703293   -97.703293    5.6992762 
  870000    2639.4319   -91.974878   -97.774825   -97.774825    5.7999469 
  871000    2699.5515   -90.877999   -96.810055   -96.810055    5.9320551 
  872000    2545.4211   -92.061508   -97.654874   -97.654874    5.5933656 
  873000    2600.2352   -91.261967   -96.975782   -96.975782    5.7138153 
  874000    2397.0848   -90.329821   -95.597229   -95.597229     5.267408 
  875000    2612.8105   -89.816607   -95.558055   -95.558055    5.7414484 
  876000    2552.1162   -89.484849   -95.092927   -95.092927    5.6080775 
  877000    2747.6438    -91.98471   -98.022444   -98.022444    6.0377343 
  878000    2691.7352    -88.32304   -94.237919   -94.237919    5.9148793 
  879000    2648.5718   -89.203061   -95.023092   -95.023092    5.8200311 
  880000    2726.8505   -89.098483   -95.090525   -95.090525    5.9920426 
  881000     2594.577    -90.02159   -95.722972   -95.722972    5.7013819 
  882000    2626.0367   -88.049495   -93.820008   -93.820008    5.7705121 
  883000    2594.4668   -92.263599   -97.964738   -97.964738    5.7011396 
  884000    2713.6627   -93.251953   -99.215016   -99.215016    5.9630633 
  885000    2563.3099    -93.43351   -99.066185   -99.066185    5.6326747 
  886000    2655.1818   -93.778232   -99.612788   -99.612788    5.8345561 
  887000    2651.2709   -93.421907   -99.247869   -99.247869    5.8259621 
  888000    2659.0858   -94.238299   -100.08143   -100.08143    5.8431349 
  889000    2660.9427   -93.667205    -99.51442    -99.51442    5.8472153 
  890000    2681.9117   -94.319356   -100.21265   -100.21265    5.8932931 
  891000    2616.4712   -92.808043   -98.557536   -98.557536    5.7494927 
  892000    2663.9254    -91.50433     -97.3581     -97.3581    5.8537696 
  893000    2699.2704   -90.456365   -96.387802   -96.387802    5.9314373 
  894000    2586.6589   -91.666682   -97.350665   -97.350665    5.6839825 
  895000    2768.4459   -92.960208   -99.043653   -99.043653    6.0834452 
  896000    2681.9722   -92.598766   -98.492192   -98.492192    5.8934259 
  897000    2703.6682   -92.544107   -98.485209   -98.485209    5.9411013 
  898000    2670.2696   -92.298847   -98.166557   -98.166557    5.8677105 
  899000    2608.1993   -91.295399   -97.026715   -97.026715    5.7313158 
  900000      2780.33   -92.475569   -98.585128   -98.585128    6.1095595 
  901000    2643.4394   -92.760415   -98.569168   -98.569168    5.8087532 
  902000    2648.6916   -93.027838   -98.848133   -98.848133    5.8202944 
  903000    2593.9433   -92.379841   -98.079831   -98.079831    5.6999894 
  904000    2611.0782   -93.030878    -98.76852    -98.76852    5.7376418 
  905000    2822.1832   -91.478267   -97.679796   -97.679796    6.2015288 
  906000    2724.4542   -93.225975   -99.212752   -99.212752    5.9867768 
  907000    2820.2618   -91.073639   -97.270946   -97.270946    6.1973067 
  908000    2818.0217   -89.309032   -95.501416   -95.501416    6.1923843 
  909000     2655.629   -91.630555   -97.466094   -97.466094    5.8355387 
  910000    2794.6011   -93.788918   -99.929838   -99.929838    6.1409193 
  911000    2783.2726   -92.199417   -98.315443   -98.315443    6.1160257 
  912000    2694.4117   -92.441501   -98.362261   -98.362261    5.9207607 
  913000    2754.6313   -91.409533   -97.462621   -97.462621    6.0530888 
  914000    2811.4741   -92.462597   -98.640594   -98.640594    6.1779963 
  915000    2617.0036   -91.826738   -97.577401   -97.577401    5.7506625 
  916000    2757.4435   -93.403484   -99.462752   -99.462752    6.0592682 
  917000    2698.1843   -89.655336   -95.584387   -95.584387    5.9290507 
  918000    2777.8191   -92.243249   -98.347291   -98.347291     6.104042 
  919000    2691.1621    -93.71042    -99.62404    -99.62404      5.91362 
  920000    2714.6422   -91.505639   -97.470854   -97.470854    5.9652157 
  921000    2803.2776   -91.412556   -97.572541   -97.572541    6.1599852 
  922000    2889.0368   -89.479235    -95.82767    -95.82767    6.3484344 
  923000    2686.3302   -91.965256   -97.868258   -97.868258    5.9030024 
  924000    2759.6265    -92.56574   -98.629805   -98.629805    6.0640653 
  925000    2774.2542   -91.336935   -97.433143   -97.433143    6.0962085 
  926000    2692.6574   -91.767605   -97.684511   -97.684511    5.9169059 
  927000    2741.5393   -92.984262   -99.008582   -99.008582    6.0243201 
  928000    2571.2716   -91.365893   -97.016063   -97.016063    5.6501699 
  929000    2831.5826   -94.367823   -100.59001   -100.59001    6.2221833 
  930000     2945.509   -90.153602    -96.62613    -96.62613    6.4725276 
  931000    2849.0576   -91.547176   -97.807759   -97.807759    6.2605832 
  932000    2804.1024   -91.770944   -97.932742   -97.932742    6.1617977 
  933000     2767.296   -89.325416   -95.406335   -95.406335    6.0809184 
  934000    2759.8372   -92.736259   -98.800787   -98.800787    6.0645283 
  935000    2767.2972   -90.584252   -96.665173   -96.665173    6.0809211 
  936000    2782.3367   -93.110845   -99.224814   -99.224814    6.1139692 
  937000    2849.5042   -91.584553   -97.846118   -97.846118    6.2615646 
  938000    2793.0792   -91.072812   -97.210387   -97.210387    6.1375749 
  939000    2897.5726   -92.815148   -99.182339   -99.182339    6.3671911 
  940000    2734.0868   -92.879139   -98.887083   -98.887083    6.0079439 
  941000    2844.3012   -92.254911   -98.505042   -98.505042    6.2501314 
  942000    2832.2426   -93.390943   -99.614576   -99.614576    6.2236336 
  943000    2730.0479   -92.342163   -98.341232   -98.341232    5.9990686 
  944000    2878.9173   -93.784003    -100.1102    -100.1102    6.3261975 
  945000     2815.523   -90.913923   -97.100816   -97.100816    6.1868936 
  946000    3072.5986   -92.174936   -98.926733   -98.926733    6.7517973 
  947000      2936.62   -95.182583   -101.63558   -101.63558    6.4529948 
  948000    2806.0212   -91.899613   -98.065627   -98.065627     6.166014 
  949000    2962.5233   -94.104618   -100.61453   -100.61453    6.5099153 
  950000    2959.6547   -90.384372   -96.887984   -96.887984    6.5036117 
  951000    2970.0367   -92.820946   -99.347371   -99.347371    6.5264254 
  952000    3010.7991   -91.644368   -98.260365   -98.260365    6.6159975 
  953000    2900.2488   -92.348563   -98.721634   -98.721634    6.3730718 
  954000    2706.7229   -94.393166   -100.34098   -100.34098    5.9478136 
  955000    2841.8909    -93.23671   -99.481545   -99.481545     6.244835 
  956000    2873.0186   -92.820642   -99.133877   -99.133877    6.3132355 
  957000    3039.6106   -90.572844   -97.252152   -97.252152    6.6793086 
  958000     2848.503   -95.051691   -101.31106   -101.31106    6.2593644 
  959000    2903.8784   -94.684933   -101.06598   -101.06598    6.3810476 
  960000    2830.7241   -95.436203    -101.6565    -101.6565    6.2202967 
  961000    2898.5456   -93.128836   -99.498165   -99.498165    6.3693292 
  962000    2994.2025   -91.936699   -98.516227   -98.516227    6.5795279 
  963000    2960.0237    -94.33251   -100.83693   -100.83693    6.5044226 
  964000    2784.8867   -93.240565   -99.360138   -99.360138    6.1195726 
  965000    2977.9634   -93.083917    -99.62776    -99.62776    6.5438436 
  966000     2913.372   -92.584877   -98.986786   -98.986786    6.4019091 
  967000    2873.8655   -93.860859   -100.17596   -100.17596    6.3150966 
  968000    2921.3357   -96.074608   -102.49402   -102.49402    6.4194086 
  969000    2923.9632   -92.886083   -99.311265   -99.311265    6.4251823 
  970000    2759.5154   -93.075002   -99.138823   -99.138823    6.0638212 
  971000    2974.6689   -93.699702   -100.23631   -100.23631    6.5366044 
  972000    2885.1804   -92.719666   -99.059626   -99.059626    6.3399602 
  973000    3003.7207   -94.010836   -100.61128   -100.61128    6.6004434 
  974000    2896.2877   -95.463995   -101.82836   -101.82836    6.3643677 
  975000    2846.2621   -91.220377   -97.474817   -97.474817    6.2544403 
  976000    2937.2899   -93.471432   -99.925899   -99.925899    6.4544668 
  977000    3005.2298   -94.027277   -100.63104   -100.63104    6.6037594 
  978000    2910.3282   -94.658707   -101.05393   -101.05393    6.3952205 
  979000    3013.4886   -93.876771   -100.49868   -100.49868    6.6219076 
  980000    2958.4302   -96.271804   -102.77273   -102.77273     6.500921 
  981000    2812.8412   -92.869529   -99.050529   -99.050529    6.1810004 
  982000    3097.5185   -95.088308   -101.89486   -101.89486    6.8065567 
  983000    2808.3486   -95.038108   -101.20924   -101.20924    6.1711283 
  984000    2996.1538   -93.749262   -100.33308   -100.33308    6.5838157 
  985000    2951.7475   -93.546843   -100.03308   -100.03308    6.4862364 
  986000    2858.7835   -94.529149    -100.8111    -100.8111     6.281955 
  987000    2982.1783   -93.508058   -100.06116   -100.06116    6.5531056 
  988000    2981.7577   -94.120087   -100.67227   -100.67227    6.5521813 
  989000     3077.772   -92.500973   -99.264138   -99.264138    6.7631654 
  990000    2985.8675   -92.781841   -99.343053   -99.343053    6.5612124 
  991000    3111.8847   -96.122752   -102.96088   -102.96088    6.8381254 
  992000    2857.3287   -94.863322   -101.14208   -101.14208    6.2787583 
  993000    2894.5937   -92.242445    -98.60309    -98.60309    6.3606453 
  994000    2965.4196   -95.101279   -101.61756   -101.61756    6.5162796 
  995000    2917.6593   -91.477547   -97.888877   -97.888877    6.4113301 
  996000    3056.2503   -93.970047   -100.68592   -100.68592    6.7158731 
  997000    2862.2252   -93.264418   -99.553936   -99.553936     6.289518 
  998000     3023.524   -94.831331   -101.47529   -101.47529    6.6439596 
  999000    2935.9195   -94.051597   -100.50305   -100.50305    6.4514554 
 1000000    2873.5935    -93.65288   -99.967378   -99.967378    6.3144988 
Loop time of 31.6944 on 1 procs for 1000000 steps with 18 atoms

Performance: 272.603 ns/day, 0.088 hours/ns, 31551.267 timesteps/s
97.6% CPU use with 1 MPI tasks x 1 OpenMP threads

MPI task timing breakdown:
Section |  min time  |  avg time  |  max time  |%varavg| %total
---------------------------------------------------------------
Pair    | 26.826     | 26.826     | 26.826     |   0.0 | 84.64
[...]
 1857000    727.95769    -103.1287   -104.72833   -104.72833    1.5996306 
 1858000    719.49525   -103.13409   -104.71512   -104.71512     1.581035 
 1859000    712.94696    -102.2931   -103.85975   -103.85975    1.5666457 
 1860000    714.01712   -101.34726   -102.91626   -102.91626    1.5689973 
 1861000    717.57669   -102.53128   -104.10809   -104.10809    1.5768191 
 1862000    700.21636   -102.36802   -103.90669   -103.90669    1.5386711 
 1863000    716.17608   -102.43421   -104.00795   -104.00795    1.5737414 
 1864000    725.66506   -102.70293   -104.29752   -104.29752    1.5945927 
 1865000    704.65954   -103.17594   -104.72437   -104.72437    1.5484347 
 1866000    702.54097   -103.44423   -104.98801   -104.98801    1.5437793 
 1867000    712.34888   -103.48821   -105.05354   -105.05354    1.5653314 
 1868000     710.6775   -103.43612   -104.99778   -104.99778    1.5616587 
 1869000    684.34145   -103.03636   -104.54015   -104.54015    1.5037873 
 1870000    688.49337   -103.20947   -104.72238   -104.72238    1.5129108 
 1871000    684.53338   -102.87009    -104.3743    -104.3743     1.504209 
 1872000    684.02054   -102.38271    -103.8858    -103.8858    1.5030821 
 1873000    672.78806   -102.18777   -103.66617   -103.66617    1.4783996 
 1874000    673.42373   -102.38546   -103.86526   -103.86526    1.4797964 
 1875000    657.31207   -102.43695   -103.88134   -103.88134    1.4443923 
 1876000    667.62063   -101.89066    -103.3577    -103.3577    1.4670446 
 1877000    680.66313   -102.21845   -103.71416   -103.71416    1.4957045 
 1878000    653.99189   -102.32927   -103.76637   -103.76637    1.4370965 
 1879000    658.71267   -102.53424   -103.98171   -103.98171      1.44747 
 1880000    648.25432   -102.79863   -104.22311   -104.22311    1.4244886 
 1881000     646.0152   -102.88918   -104.30874   -104.30874    1.4195683 
 1882000    661.46877   -102.95551   -104.40904   -104.40904    1.4535263 
 1883000    647.34968   -103.69353   -105.11603   -105.11603    1.4225007 
 1884000      638.418   -103.31009   -104.71296   -104.71296     1.402874 
 1885000    647.37319   -103.68256   -105.10512   -105.10512    1.4225524 
 1886000    636.69465    -103.6716   -105.07069   -105.07069    1.3990871 
 1887000    623.71053   -102.77166   -104.14221   -104.14221    1.3705555 
 1888000    639.68848   -103.55859   -104.96426   -104.96426    1.4056658 
 1889000      642.955   -102.89148   -104.30432   -104.30432    1.4128438 
 1890000    631.11826   -102.87828   -104.26511   -104.26511    1.3868334 
 1891000    637.07374   -102.73178    -104.1317    -104.1317    1.3999201 
 1892000    605.95867   -102.76087   -104.09242   -104.09242    1.3315472 
 1893000    626.24733   -102.11846   -103.49459   -103.49459    1.3761299 
 1894000    620.37608   -102.37145   -103.73468   -103.73468    1.3632283 
 1895000    618.15559   -103.53571   -104.89406   -104.89406     1.358349 
 1896000    614.06627   -103.81445   -105.16381   -105.16381     1.349363 
 1897000     604.1236   -103.03324   -104.36076   -104.36076    1.3275148 
 1898000    604.89634   -103.74924   -105.07845   -105.07845    1.3292128 
 1899000    613.18199   -102.98101   -104.32843   -104.32843    1.3474199 
 1900000    585.19304   -102.72733   -104.01325   -104.01325    1.2859163 
 1901000    589.81988   -103.06507   -104.36116   -104.36116    1.2960834 
 1902000    586.17617   -102.93501   -104.22309   -104.22309    1.2880767 
 1903000    598.00485   -103.86773    -105.1818    -105.1818    1.3140693 
 1904000    589.16134   -103.57088   -104.86552   -104.86552    1.2946364 
 1905000     577.1515    -103.9184   -105.18665   -105.18665    1.2682457 
 1906000    584.42473   -103.57787    -104.8621    -104.8621     1.284228 
 1907000    586.51118   -103.23928    -104.5281    -104.5281    1.2888128 
 1908000    562.17789   -102.73721   -103.97255   -103.97255    1.2353423 
 1909000    585.63934   -103.22317   -104.51007   -104.51007     1.286897 
 1910000    577.70926   -103.61029   -104.87976   -104.87976    1.2694713 
 1911000    561.06693    -103.9151     -105.148     -105.148    1.2329011 
 1912000    552.19797   -103.48113   -104.69454   -104.69454    1.2134122 
 1913000     594.4852   -103.10449   -104.41083   -104.41083    1.3063351 
 1914000    575.92944    -103.5846   -104.85016   -104.85016    1.2655603 
 1915000     541.3057   -103.85309   -105.04257   -105.04257    1.1894773 
 1916000    548.90638   -103.41234   -104.61852   -104.61852    1.2061792 
 1917000     544.9377   -103.92163   -105.11909   -105.11909    1.1974583 
 1918000    532.06433   -103.35245   -104.52162   -104.52162    1.1691701 
 1919000    545.29352   -103.39934   -104.59758   -104.59758    1.1982402 
 1920000    535.97308   -104.10829   -105.28605   -105.28605    1.1777593 
 1921000    528.92781   -103.62773   -104.79001   -104.79001    1.1622779 
 1922000    535.70858   -103.46586   -104.64304   -104.64304    1.1771781 
 1923000    532.76952   -103.60582   -104.77654   -104.77654    1.1707197 
 1924000    519.43853   -103.18036   -104.32179   -104.32179    1.1414259 
 1925000    537.82463   -102.99217     -104.174     -104.174    1.1818279 
 1926000    529.65472   -103.35702    -104.5209    -104.5209    1.1638752 
 1927000    523.47361   -103.66069   -104.81098   -104.81098    1.1502927 
 1928000     510.6454   -103.80201   -104.92412   -104.92412    1.1221037 
 1929000    531.04187   -103.77658    -104.9435    -104.9435    1.1669233 
 1930000    510.60954   -104.02713   -105.14915   -105.14915    1.1220249 
 1931000    500.09254   -103.45771   -104.55663   -104.55663    1.0989146 
 1932000    514.34982   -103.35713   -104.48737   -104.48737    1.1302438 
 1933000    494.08649   -103.65729     -104.743     -104.743    1.0857168 
 1934000    493.23425   -104.03926   -105.12311   -105.12311     1.083844 
 1935000    495.45248   -103.84359   -104.93231   -104.93231    1.0887184 
 1936000    499.89324   -103.46114   -104.55962   -104.55962    1.0984766 
 1937000    481.15466   -104.01295   -105.07025   -105.07025    1.0573001 
 1938000    480.88754   -103.94862   -105.00534   -105.00534    1.0567131 
 1939000    486.21447    -103.8214   -104.88982   -104.88982    1.0684186 
 1940000     479.1728   -104.20991   -105.26286   -105.26286    1.0529451 
 1941000    479.81003   -103.50358   -104.55793   -104.55793    1.0543453 
 1942000    467.19578   -103.58312   -104.60974   -104.60974    1.0266265 
 1943000    479.58644   -103.56015   -104.61401   -104.61401     1.053854 
 1944000    462.54762   -103.97744   -104.99386   -104.99386    1.0164125 
 1945000    462.01198   -104.06111   -105.07634   -105.07634    1.0152355 
 1946000    447.15748   -103.79455   -104.77715   -104.77715    0.9825939 
 1947000    455.45958   -104.29168   -105.29252   -105.29252    1.0008371 
 1948000    447.11472   -103.46948   -104.45198   -104.45198   0.98249992 
 1949000    454.56288    -103.7844   -104.78326   -104.78326   0.99886668 
 1950000     454.4613   -103.75974   -104.75839   -104.75839   0.99864347 
 1951000    442.77558   -104.41125   -105.38421   -105.38421   0.97296501 
 1952000    441.08267    -104.2093   -105.17854   -105.17854   0.96924497 
 1953000    439.74704    -104.0946   -105.06091   -105.06091   0.96631003 
 1954000    452.54963   -104.14078   -105.13523   -105.13523   0.99444272 
 1955000    420.31456   -103.72283   -104.64644   -104.64644   0.92360865 
 1956000    431.27634   -103.76181    -104.7095    -104.7095   0.94769632 
 1957000    429.15211   -103.77863   -104.72166   -104.72166   0.94302848 
 1958000    424.97757   -104.44573   -105.37958   -105.37958   0.93385526 
 1959000    419.59807   -104.18099   -105.10302   -105.10302   0.92203423 
 1960000    408.70128    -103.7572   -104.65529   -104.65529   0.89808938 
 1961000    413.08804   -104.50712   -105.41484   -105.41484   0.90772893 
 1962000    407.32182   -104.12329   -105.01835   -105.01835   0.89505812 
 1963000    409.10023   -103.91959   -104.81855   -104.81855   0.89896604 
 1964000    407.36363   -104.30191   -105.19706   -105.19706   0.89514999 
 1965000    396.12575   -103.97945   -104.84991   -104.84991   0.87045561 
 1966000    402.22129   -104.03094   -104.91479   -104.91479    0.8838501 
 1967000    404.82544   -104.34446   -105.23404   -105.23404   0.88957251 
 1968000    392.00353   -104.34694   -105.20834   -105.20834   0.86139737 
 1969000    394.18681   -104.49752   -105.36372   -105.36372   0.86619495 
 1970000    388.18435   -104.44963   -105.30264   -105.30264     0.853005 
 1971000    390.48166   -103.84105    -104.6991    -104.6991   0.85805316 
 1972000    388.91383   -104.21163   -105.06624   -105.06624     0.854608 
 1973000    383.99712   -104.28899   -105.13279   -105.13279    0.8438039 
 1974000    374.03573    -104.3911   -105.21301   -105.21301   0.82191452 
 1975000    375.62015   -104.13432   -104.95972   -104.95972   0.82539615 
 1976000     376.5622   -104.46697   -105.29443   -105.29443   0.82746624 
 1977000    365.42895   -104.35033   -105.15333   -105.15333   0.80300178 
 1978000    367.83866   -104.86386   -105.67216   -105.67216   0.80829694 
 1979000    373.44603   -104.56686   -105.38748   -105.38748   0.82061869 
 1980000    353.86474   -104.27121    -105.0488    -105.0488   0.77759032 
 1981000    353.94186   -104.01252   -104.79028   -104.79028   0.77775979 
 1982000     361.2258   -104.10377   -104.89754   -104.89754   0.79376568 
 1983000    357.15697   -104.43465   -105.21947   -105.21947   0.78482476 
 1984000    351.30246   -104.91217   -105.68413   -105.68413   0.77195992 
 1985000    343.97352   -104.71788   -105.47373   -105.47373   0.75585514 
 1986000    341.07452   -104.53634   -105.28583   -105.28583   0.74948482 
 1987000    330.77295   -104.45672   -105.18356   -105.18356   0.72684791 
 1988000    334.31855   -104.27626    -105.0109    -105.0109   0.73463909 
 1989000    349.50906   -104.08411   -104.85213   -104.85213   0.76801905 
 1990000    325.14877   -104.48664   -105.20113   -105.20113   0.71448921 
 1991000    330.66926   -104.48305   -105.20967   -105.20967   0.72662006 
 1992000    328.26426   -103.91675   -104.63808   -104.63808   0.72133527 
 1993000    320.48951   -104.46361   -105.16786   -105.16786   0.70425085 
 1994000    326.23416   -104.46646   -105.18334   -105.18334   0.71687428 
 1995000    320.55037   -104.79765   -105.50204   -105.50204   0.70438459 
 1996000    309.99555   -104.65187   -105.33306   -105.33306   0.68119119 
 1997000    306.54071   -104.80531   -105.47891   -105.47891   0.67359943 
 1998000    297.60123   -104.81663   -105.47058   -105.47058   0.65395562 
 1999000    307.09709   -104.80579   -105.48061   -105.48061   0.67482205 
 2000000    301.07646    -104.6813   -105.34289   -105.34289   0.66159217 
 2001000    302.58233   -104.46199   -105.12689   -105.12689    0.6649012 
 2002000    297.67933   -104.51052   -105.16465   -105.16465   0.65412725 
 2003000    292.18885   -104.57552   -105.21759   -105.21759   0.64206235 
 2004000     274.5795   -104.16481   -104.76818   -104.76818   0.60336716 
 2005000    288.51423   -104.83217   -105.46616   -105.46616   0.63398764 
 2006000    279.84452   -104.97531   -105.59025   -105.59025   0.61493664 
 2007000    276.46239   -104.86665   -105.47416   -105.47416   0.60750466 
 2008000    276.96977   -105.00032   -105.60894   -105.60894   0.60861959 
 2009000    281.51891   -104.84043   -105.45904   -105.45904   0.61861597 
 2010000    262.16936   -104.79618   -105.37227   -105.37227   0.57609683 
 2011000    262.65677   -104.81953   -105.39669   -105.39669   0.57716789 
 2012000    256.91741   -104.67689   -105.24144   -105.24144   0.56455608 
 2013000      265.119   -104.83674   -105.41932   -105.41932   0.58257845 
 2014000    256.74496   -104.76438   -105.32856   -105.32856   0.56417714 
 2015000    248.90724   -104.86847   -105.41542   -105.41542   0.54695436 
 2016000    246.06369   -104.84933   -105.39003   -105.39003   0.54070587 
 2017000    249.82068   -104.78732   -105.33628   -105.33628   0.54896158 
 2018000    247.14226   -104.79986   -105.34294   -105.34294   0.54307595 
 2019000     246.1677   -104.93804   -105.47898   -105.47898   0.54093444 
 2020000    234.15546   -105.12752   -105.64206   -105.64206   0.51453847 
 2021000    235.33003   -105.04378    -105.5609    -105.5609    0.5171195 
 2022000    232.88101   -105.11693   -105.62867   -105.62867   0.51173797 
 2023000     231.4955   -105.02899   -105.53768   -105.53768   0.50869341 
 2024000    231.66149   -104.89289   -105.40194   -105.40194   0.50905817 
 2025000    219.34592   -104.83597   -105.31796   -105.31796   0.48199566 
 2026000     222.6093   -105.00061   -105.48977   -105.48977   0.48916667 
 2027000    213.21971   -105.08075   -105.54929   -105.54929   0.46853377 
 2028000    215.68393   -105.09355    -105.5675    -105.5675   0.47394872 
 2029000    214.43107    -105.0447    -105.5159    -105.5159   0.47119565 
 2030000    206.82122   -104.99549   -105.44997   -105.44997    0.4544736 
 2031000    202.68409   -105.03651   -105.48189   -105.48189   0.44538258 
 2032000    202.02494   -105.24079   -105.68472   -105.68472   0.44393414 
 2033000     201.0112   -105.20968   -105.65138   -105.65138   0.44170653 
 2034000     198.2277   -105.11386   -105.54945   -105.54945   0.43558999 
 2035000    194.18145   -105.07501   -105.50171   -105.50171   0.42669868 
 2036000    192.51805   -104.86064   -105.28368   -105.28368    0.4230435 
 2037000    189.44886   -105.22861   -105.64491   -105.64491   0.41629918 
 2038000    185.07409   -105.33744   -105.74412   -105.74412   0.40668595 
 2039000     184.5012   -105.12123   -105.52666   -105.52666   0.40542709 
 2040000    183.52967   -105.30074   -105.70404   -105.70404   0.40329222 
 2041000    177.09281   -105.08816   -105.47731   -105.47731   0.38914772 
 2042000    179.98451   -105.02773   -105.42323   -105.42323   0.39550201 
 2043000    170.52584   -105.30475   -105.67947   -105.67947   0.37471731 
 2044000    170.35042   -105.35894   -105.73328   -105.73328   0.37433184 
 2045000     163.7016   -105.23743   -105.59715   -105.59715   0.35972158 
 2046000    161.59453   -105.31974   -105.67483   -105.67483   0.35509144 
 2047000    156.97514   -105.26055   -105.60549   -105.60549    0.3449407 
 2048000     156.4218   -105.14456   -105.48828   -105.48828   0.34372477 
 2049000     157.3375     -105.398   -105.74374   -105.74374   0.34573695 
 2050000    150.01019   -105.47031   -105.79995   -105.79995   0.32963577 
 2051000    142.96251   -105.24303   -105.55718   -105.55718   0.31414902 
 2052000    145.66555   -105.41359   -105.73367   -105.73367   0.32008876 
 2053000    142.39074   -105.32089   -105.63378   -105.63378    0.3128926 
 2054000    139.64145    -105.1504   -105.45725   -105.45725   0.30685125 
 2055000    137.92668   -105.54649   -105.84958   -105.84958   0.30308318 
 2056000    132.03734   -105.48778   -105.77792   -105.77792   0.29014182 
 2057000    127.85733   -105.36068   -105.64163   -105.64163   0.28095657 
 2058000    125.15007   -105.49397   -105.76898   -105.76898   0.27500757 
 2059000    124.46572   -105.54462   -105.81812   -105.81812   0.27350376 
 2060000    120.79711   -105.39126    -105.6567    -105.6567   0.26544229 
 2061000    114.39006   -105.37213   -105.62349   -105.62349   0.25136329 
 2062000    114.57507   -105.55561   -105.80738   -105.80738   0.25176983 
 2063000    112.73669   -105.49794   -105.74567   -105.74567   0.24773014 
 2064000    108.38293   -105.56044    -105.7986    -105.7986   0.23816308 
 2065000    104.19442   -105.66714   -105.89609   -105.89609   0.22895916 
 2066000    104.09893   -105.46318   -105.69193   -105.69193   0.22874934 
 2067000    98.510486   -105.57616   -105.79263   -105.79263   0.21646916 
 2068000    96.856733   -105.53525   -105.74809   -105.74809   0.21283516 
 2069000     95.24996    -105.5059   -105.71521   -105.71521    0.2093044 
 2070000    89.658158   -105.60942   -105.80644   -105.80644   0.19701685 
 2071000    86.764602   -105.57693   -105.76759   -105.76759   0.19065848 
 2072000    84.071156   -105.64042   -105.82516   -105.82516   0.18473985 
 2073000    80.768721   -105.59821   -105.77569   -105.77569     0.177483 
 2074000    78.424027   -105.73461   -105.90695   -105.90695   0.17233072 
 2075000     74.85601   -105.69259   -105.85708   -105.85708   0.16449028 
 2076000    73.076867   -105.71299   -105.87358   -105.87358   0.16058075 
 2077000    69.540191   -105.76288   -105.91569   -105.91569   0.15280918 
 2078000    65.370052   -105.59415   -105.73779   -105.73779   0.14364562 
 2079000    63.990049   -105.73022   -105.87084   -105.87084   0.14061317 
 2080000    60.037788    -105.7455   -105.87743   -105.87743   0.13192838 
 2081000    57.506201   -105.74186   -105.86823   -105.86823   0.12636542 
 2082000    54.723085   -105.79624   -105.91649   -105.91649   0.12024974 
 2083000    51.004231   -105.74621   -105.85829   -105.85829   0.11207784 
 2084000    47.609769   -105.76909    -105.8737    -105.8737   0.10461878 
 2085000     45.40869   -105.74436   -105.84415   -105.84415  0.099782076 
 2086000    42.273135   -105.85636   -105.94925   -105.94925  0.092891936 
 2087000    38.610259   -105.86727   -105.95211   -105.95211  0.084843051 
 2088000    36.854192    -105.8329   -105.91389   -105.91389   0.08098423 
 2089000    33.492755   -105.89449   -105.96809   -105.96809  0.073597732 
 2090000    29.221133   -105.83843   -105.90264   -105.90264  0.064211174 
 2091000    28.360113   -105.85299   -105.91531   -105.91531  0.062319148 
 2092000    24.560678   -105.91527   -105.96924   -105.96924  0.053970186 
 2093000    21.021364   -105.89696   -105.94316   -105.94316  0.046192818 
 2094000    18.424942   -105.92588   -105.96637   -105.96637  0.040487381 
 2095000    15.273666   -105.94478   -105.97834   -105.97834  0.033562697 
 2096000    12.114555   -105.95407   -105.98069   -105.98069  0.026620795 
 2097000    9.0973539   -105.96362   -105.98361   -105.98361   0.01999073 
 2098000     6.324227   -105.97938   -105.99327   -105.99327  0.013896998 
 2099000     3.288234   -105.99669   -106.00392   -106.00392 0.0072256392 
 2100000   0.25205491    -106.0031   -106.00365   -106.00365 0.00055387112 
 2100072  0.039936919    -106.0038   -106.00388   -106.00388 8.7758283e-05 
Loop time of 36.0465 on 1 procs for 1000000 steps with 18 atoms

Performance: 239.690 ns/day, 0.100 hours/ns, 27741.937 timesteps/s
96.8% CPU use with 1 MPI tasks x 1 OpenMP threads

MPI task timing breakdown:
Section |  min time  |  avg time  |  max time  |%varavg| %total
---------------------------------------------------------------
Pair    | 29.481     | 29.481     | 29.481     |   0.0 | 81.78
Neigh   | 0.11372    | 0.11372    | 0.11372    |   0.0 |  0.32
Comm    | 0.43914    | 0.43914    | 0.43914    |   0.0 |  1.22
Output  | 1.2071     | 1.2071     | 1.2071     |   0.0 |  3.35
Modify  | 4.1961     | 4.1961     | 4.1961     |   0.0 | 11.64
Other   |            | 0.6099     |            |       |  1.69

Nlocal:        18.0000 ave          18 max          18 min
Histogram: 1 0 0 0 0 0 0 0 0 0
Nghost:        15.0000 ave          15 max          15 min
Histogram: 1 0 0 0 0 0 0 0 0 0
Neighs:         0.00000 ave           0 max           0 min
Histogram: 1 0 0 0 0 0 0 0 0 0
FullNghs:      258.000 ave         258 max         258 min
Histogram: 1 0 0 0 0 0 0 0 0 0

Total # of neighbors = 258
Ave neighs/atom = 14.333333
Neighbor list builds = 2194
Dangerous builds = 0
write_restart 	./endconf/endconf*3.restart
System init for write_restart ...

Total wall time: 0:01:11
