LAMMPS (29 Sep 2021 - Update 2)
OMP_NUM_THREADS environment is not set. Defaulting to 1 thread. (src/comm.cpp:98)
  using 1 OpenMP thread(s) per MPI task
# REBOII potentiel for c system
# .....

units		metal
boundary p p p
atom_style	charge

############################################
#              CLI Variables               #
############################################
variable 		seed index 200093          #
variable 		N index 7                  #
variable 		iter index 10000000         #
variable 		iterther index 100000      #
variable 		iexport index 50000        #
variable 		tempchauff index 3000       #
variable 		Tdamp index 0.001          #
variable 		timestep index 0.0001      #
variable 		box_size index 10		   #
############################################
############################################

#----------------------- simulation box --------------------------------------------------
lattice   sc 1.0
Lattice spacing in x,y,z = 1.0000000 1.0000000 1.0000000

region     bigbox block 0 100 0 100 0 100
create_box     2 bigbox
Created orthogonal box = (0.0000000 0.0000000 0.0000000) to (100.00000 100.00000 100.00000)
  1 by 1 by 1 MPI processor grid

region          smallbox block 40 60 40 60 40 60 units box
#region	        mysphere sphere 50.0 50.0 50.0 2.0 units box

create_atoms    1 random ${N} ${seed} smallbox
create_atoms    1 random 7 ${seed} smallbox
create_atoms    1 random 7 200093 smallbox
Created 7 atoms
  using lattice units in orthogonal box = (0.0000000 0.0000000 0.0000000) to (100.00000 100.00000 100.00000)
  create_atoms CPU = 0.001 seconds

#create_atoms    1 random ${nbatoms} 268752 bigbox
mass * 12.0107

#----------------------- interaction potential -------------------------------------------
pair_style  airebo 1.7
pair_coeff * * CH.airebo C C	# see the file
Reading airebo potential file CH.airebo with DATE: 2011-10-25
neighbor	0.3 bin
neigh_modify    delay 0 every 1 check yes

velocity   all create  0.0001 1563967 rot yes dist gaussian

# ---------- Run MD CHAUFFE ---------------------
fix              2 all nve
fix              3 all temp/berendsen 0.0 ${tempchauff} ${Tdamp}
fix              3 all temp/berendsen 0.0 3000 ${Tdamp}
fix              3 all temp/berendsen 0.0 3000 0.001
fix              4 all momentum 1 linear 1 1 1 angular rescale


timestep	${timestep}
timestep	0.0001


thermo ${iexport}
thermo 50000
thermo_style custom step  temp etotal epair ebond pe ke

dump 		1 all cfg 100000 ./dump/dump.tensile_*.cfg mass type xs ys zs vx vy vz mass q

run		${iter}
run		10000000
Neighbor list info ...
  update every 1 steps, delay 0 steps, check yes
  max neighbors/atom: 2000, page size: 100000
  master list distance cutoff = 8.116371
  ghost atom cutoff = 8.116371
  binsize = 4.0581855, bins = 25 25 25
  1 neighbor lists, perpetual/occasional/extra = 1 0 0
  (1) pair airebo, perpetual
      attributes: full, newton on, ghost
      pair build: full/bin/ghost
      stencil: full/ghost/bin/3d
      bin: standard
Per MPI rank memory allocation (min/avg/max) = 5.354 | 5.354 | 5.354 Mbytes
Step Temp TotEng E_pair E_bond PotEng KinEng 
       0       0.0001 7.7556087e-08            0            0            0 7.7556087e-08 
   50000    15.008872 0.0082413492 -0.003398945            0 -0.003398945  0.011640294 
  100000      29.9973  0.023264732            0            0            0  0.023264732 
  150000      44.9973  0.034898145            0            0            0  0.034898145 
  200000      59.9973  0.046531558            0            0            0  0.046531558 
  250000      74.9973  0.058164971            0            0            0  0.058164971 
  300000      89.9973  0.069798384            0            0            0  0.069798384 
  350000     104.9973  0.081431797            0            0            0  0.081431797 
  400000     119.9973   0.09306521            0            0            0   0.09306521 
  450000     134.9973   0.10469862            0            0            0   0.10469862 
  500000     149.9973   0.11633204            0            0            0   0.11633204 
  550000     164.9973   0.12796545            0            0            0   0.12796545 
  600000     179.9973   0.13959886            0            0            0   0.13959886 
  650000     194.9973   0.15123228            0            0            0   0.15123228 
  700000     209.9973   0.16286569            0            0            0   0.16286569 
  750000     224.9973    0.1744991            0            0            0    0.1744991 
  800000     239.9973   0.18613251            0            0            0   0.18613251 
  850000     254.9973   0.19776593            0            0            0   0.19776593 
  900000     269.9973   0.20939934            0            0            0   0.20939934 
  950000     284.9973   0.22103275            0            0            0   0.22103275 
 1000000     299.9973   0.23266617            0            0            0   0.23266617 
 1050000     314.9973   0.24429958            0            0            0   0.24429958 
 1100000     329.9973   0.25593299            0            0            0   0.25593299 
 1150000     344.9973   0.26756641            0            0            0   0.26756641 
 1200000     359.9973   0.27919982            0            0            0   0.27919982 
 1250000     374.9973   0.29083323            0            0            0   0.29083323 
 1300000     389.9973   0.30246665            0            0            0   0.30246665 
 1350000     404.9973   0.31410006            0            0            0   0.31410006 
 1400000     419.9973   0.32573347            0            0            0   0.32573347 
 1450000     434.9973   0.33736688            0            0            0   0.33736688 
 1500000     449.9973    0.3490003            0            0            0    0.3490003 
 1550000     464.9973   0.36063371            0            0            0   0.36063371 
 1600000     479.9973   0.37226712            0            0            0   0.37226712 
 1650000     494.9973   0.38390054            0            0            0   0.38390054 
 1700000     509.9973   0.39553395            0            0            0   0.39553395 
 1750000     524.9973   0.40716736            0            0            0   0.40716736 
 1800000     539.9973   0.41880078            0            0            0   0.41880078 
 1850000     554.9973   0.43043419            0            0            0   0.43043419 
 1900000     569.9973    0.4420676            0            0            0    0.4420676 
 1950000     584.9973   0.45370101            0            0            0   0.45370101 
 2000000     599.9973   0.46533443            0            0            0   0.46533443 
 2050000     614.9973   0.47696784            0            0            0   0.47696784 
 2100000     629.9973   0.48860125            0            0            0   0.48860125 
 2150000     644.9973   0.50023467            0            0            0   0.50023467 
 2200000     659.9973   0.51186808            0            0            0   0.51186808 
 2250000     674.9973   0.52350149            0            0            0   0.52350149 
 2300000     689.9973   0.53513491            0            0            0   0.53513491 
 2350000     704.9973   0.54676832            0            0            0   0.54676832 
 2400000     719.9973   0.55840173            0            0            0   0.55840173 
 2450000     734.9973   0.57003515            0            0            0   0.57003515 
 2500000     749.9973   0.58166856            0            0            0   0.58166856 
 2550000     764.9973   0.59330197            0            0            0   0.59330197 
 2600000     779.9973   0.60493538            0            0            0   0.60493538 
 2650000     794.9973    0.6165688            0            0            0    0.6165688 
 2700000     809.9973   0.62820221            0            0            0   0.62820221 
 2750000     824.9973   0.63983562            0            0            0   0.63983562 
 2800000     839.9973   0.65146904            0            0            0   0.65146904 
 2850000     854.9973   0.66310245            0            0            0   0.66310245 
 2900000     869.9973   0.67473586            0            0            0   0.67473586 
 2950000     884.9973   0.68636928            0            0            0   0.68636928 
 3000000     899.9973   0.69800269            0            0            0   0.69800269 
 3050000     914.9973    0.7096361            0            0            0    0.7096361 
 3100000     929.9973   0.72126952            0            0            0   0.72126952 
 3150000     944.9973   0.73290293            0            0            0   0.73290293 
 3200000     959.9973   0.74453634            0            0            0   0.74453634 
 3250000     974.9973   0.75616975            0            0            0   0.75616975 
 3300000     989.9973   0.76780317            0            0            0   0.76780317 
 3350000    1004.9973   0.77943658            0            0            0   0.77943658 
 3400000    1019.9973   0.79106999            0            0            0   0.79106999 
 3450000    1034.9973   0.80270341            0            0            0   0.80270341 
 3500000    1049.9973   0.81433682            0            0            0   0.81433682 
 3550000    1064.9973   0.82597023            0            0            0   0.82597023 
 3600000    1079.9973   0.83760365            0            0            0   0.83760365 
 3650000    1094.9973   0.84923706            0            0            0   0.84923706 
 3700000    1109.9973   0.86087047            0            0            0   0.86087047 
 3750000    1124.9973   0.87250388            0            0            0   0.87250388 
 3800000    1139.9973    0.8841373            0            0            0    0.8841373 
 3850000    1154.9973   0.89577071            0            0            0   0.89577071 
 3900000    1169.9973   0.90740412            0            0            0   0.90740412 
 3950000    1184.9973   0.91903754            0            0            0   0.91903754 
 4000000    1199.9973   0.93067095            0            0            0   0.93067095 
 4050000    1214.9973   0.94230436            0            0            0   0.94230436 
 4100000    1229.9973   0.95393778            0            0            0   0.95393778 
 4150000    1244.9973   0.96557119            0            0            0   0.96557119 
 4200000    1259.9973    0.9772046            0            0            0    0.9772046 
 4250000    1274.9973   0.98883802            0            0            0   0.98883802 
 4300000    1289.9895   0.99853642 -0.0019289244            0 -0.0019289244    1.0004653 
 4350000    1304.9973    1.0121048            0            0            0    1.0121048 
 4400000    1319.9973    1.0237383            0            0            0    1.0237383 
 4450000    1334.9973    1.0353717            0            0            0    1.0353717 
 4500000    1349.9973    1.0470051            0            0            0    1.0470051 
 4550000    1364.9973    1.0586385            0            0            0    1.0586385 
 4600000    1379.9973    1.0702719            0            0            0    1.0702719 
 4650000    1394.9973    1.0819053            0            0            0    1.0819053 
 4700000    1409.9973    1.0935387            0            0            0    1.0935387 
 4750000    1424.9973    1.1051721            0            0            0    1.1051721 
 4800000    1439.9973    1.1168056            0            0            0    1.1168056 
 4850000    1454.9973     1.128439            0            0            0     1.128439 
 4900000    1469.9973    1.1400724            0            0            0    1.1400724 
 4950000    1484.9973    1.1517058            0            0            0    1.1517058 
 5000000    1499.9973    1.1633392            0            0            0    1.1633392 
 5050000    1514.9973    1.1749726            0            0            0    1.1749726 
 5100000    1529.9973     1.186606            0            0            0     1.186606 
 5150000    1544.9973    1.1982395            0            0            0    1.1982395 
 5200000    1559.9973    1.2098729            0            0            0    1.2098729 
 5250000    1574.9973    1.2215063            0            0            0    1.2215063 
 5300000    1589.9973    1.2331397            0            0            0    1.2331397 
 5350000    1604.9973    1.2447731            0            0            0    1.2447731 
 5400000    1619.9973    1.2564065            0            0            0    1.2564065 
 5450000    1634.9973    1.2680399            0            0            0    1.2680399 
 5500000    1649.9973    1.2796733            0            0            0    1.2796733 
 5550000    1664.9973    1.2913068            0            0            0    1.2913068 
 5600000    1679.9973    1.3029402            0            0            0    1.3029402 
 5650000    1694.9973    1.3145736            0            0            0    1.3145736 
 5700000    1709.9973     1.326207            0            0            0     1.326207 
 5750000    1724.9973    1.3378404            0            0            0    1.3378404 
 5800000    1739.9973    1.3494738            0            0            0    1.3494738 
 5850000    1754.9973    1.3611072            0            0            0    1.3611072 
 5900000    1769.9973    1.3727406            0            0            0    1.3727406 
 5950000    1784.9973    1.3843741            0            0            0    1.3843741 
 6000000    1799.9973    1.3960075            0            0            0    1.3960075 
 6050000    1814.9973    1.4076409            0            0            0    1.4076409 
 6100000    1829.9973    1.4192743            0            0            0    1.4192743 
 6150000     1844.984    1.4303845 -0.00051289696            0 -0.00051289696    1.4308974 
 6200000    1859.9973    1.4425411            0            0            0    1.4425411 
 6250000    1874.9973    1.4541745            0            0            0    1.4541745 
 6300000    1889.9973     1.465808            0            0            0     1.465808 
 6350000    1904.9973    1.4774414            0            0            0    1.4774414 
 6400000    1919.9973    1.4890748            0            0            0    1.4890748 
 6450000    1934.9973    1.5007082            0            0            0    1.5007082 
 6500000    1949.9973    1.5123416            0            0            0    1.5123416 
 6550000    1964.9973     1.523975            0            0            0     1.523975 
 6600000    1979.9973    1.5356084            0            0            0    1.5356084 
 6650000    1994.9973    1.5472418            0            0            0    1.5472418 
 6700000    2009.9973    1.5588753            0            0            0    1.5588753 
 6750000    2024.9973    1.5705087            0            0            0    1.5705087 
 6800000    2039.9973    1.5821421            0            0            0    1.5821421 
 6850000    2054.9973    1.5937755            0            0            0    1.5937755 
 6900000    2069.9973    1.6054089            0            0            0    1.6054089 
 6950000    2084.9973    1.6170423            0            0            0    1.6170423 
 7000000    2099.9973    1.6286757            0            0            0    1.6286757 
 7050000    2114.9973    1.6403091            0            0            0    1.6403091 
 7100000    2129.9973    1.6519426            0            0            0    1.6519426 
 7150000    2144.9973     1.663576            0            0            0     1.663576 
 7200000    2159.9973    1.6752094            0            0            0    1.6752094 
 7250000    2174.9973    1.6868428            0            0            0    1.6868428 
 7300000    2189.9973    1.6984762            0            0            0    1.6984762 
 7350000    2204.9973    1.7101096            0            0            0    1.7101096 
 7400000    2219.9973     1.721743            0            0            0     1.721743 
 7450000    2234.9973    1.7333765            0            0            0    1.7333765 
 7500000    2249.9973    1.7450099            0            0            0    1.7450099 
 7550000    2264.9973    1.7566433            0            0            0    1.7566433 
 7600000    2279.9973    1.7682767            0            0            0    1.7682767 
 7650000    2294.9973    1.7799101            0            0            0    1.7799101 
 7700000    2309.9973    1.7915435            0            0            0    1.7915435 
 7750000    2324.9973    1.8031769            0            0            0    1.8031769 
 7800000    2339.9973    1.8148103            0            0            0    1.8148103 
 7850000    2354.9973    1.8264438            0            0            0    1.8264438 
 7900000    2369.9973    1.8380772            0            0            0    1.8380772 
 7950000    2384.9973    1.8497106            0            0            0    1.8497106 
 8000000    2399.9973     1.861344            0            0            0     1.861344 
 8050000    2414.9973    1.8729774            0            0            0    1.8729774 
 8100000    2429.9973    1.8846108            0            0            0    1.8846108 
 8150000    2444.9973    1.8962442            0            0            0    1.8962442 
 8200000    2459.9973    1.9078776            0            0            0    1.9078776 
 8250000    2474.9973    1.9195111            0            0            0    1.9195111 
 8300000    2489.9973    1.9311445            0            0            0    1.9311445 
 8350000    2504.9973    1.9427779            0            0            0    1.9427779 
 8400000    2519.9973    1.9544113            0            0            0    1.9544113 
 8450000    2534.9973    1.9660447            0            0            0    1.9660447 
 8500000    2549.9973    1.9776781            0            0            0    1.9776781 
 8550000    2564.9973    1.9893115            0            0            0    1.9893115 
 8600000    2579.9973     2.000945            0            0            0     2.000945 
 8650000    2594.9973    2.0125784            0            0            0    2.0125784 
 8700000    2609.9973    2.0242118            0            0            0    2.0242118 
 8750000    2624.9973    2.0358452            0            0            0    2.0358452 
 8800000    2639.9973    2.0474786            0            0            0    2.0474786 
 8850000    2654.9973     2.059112            0            0            0     2.059112 
 8900000    2669.9973    2.0707454            0            0            0    2.0707454 
 8950000    2684.9973    2.0823788            0            0            0    2.0823788 
 9000000    2699.9973    2.0940123            0            0            0    2.0940123 
 9050000    2714.9973    2.1056457            0            0            0    2.1056457 
 9100000    2729.9973    2.1172791            0            0            0    2.1172791 
 9150000    2744.9973    2.1289125            0            0            0    2.1289125 
 9200000    2759.9973    2.1405459            0            0            0    2.1405459 
 9250000    2774.9973    2.1521793            0            0            0    2.1521793 
 9300000    2789.9973    2.1638127            0            0            0    2.1638127 
 9350000    2804.9973    2.1754461            0            0            0    2.1754461 
 9400000    2819.9973    2.1870796            0            0            0    2.1870796 
 9450000    2834.9973     2.198713            0            0            0     2.198713 
 9500000    2849.9973    2.2103464            0            0            0    2.2103464 
 9550000    2864.9973    2.2219798            0            0            0    2.2219798 
 9600000    2879.9973    2.2336132            0            0            0    2.2336132 
 9650000    2894.9973    2.2452466            0            0            0    2.2452466 
 9700000    2909.9973      2.25688            0            0            0      2.25688 
 9750000    2924.9973    2.2685135            0            0            0    2.2685135 
 9800000    2939.9973    2.2801469            0            0            0    2.2801469 
 9850000    2954.9973    2.2917803            0            0            0    2.2917803 
 9900000    2969.9973    2.3034137            0            0            0    2.3034137 
 9950000    2984.9973    2.3150471            0            0            0    2.3150471 
10000000    2999.9973    2.3266805            0            0            0    2.3266805 
Loop time of 30.1004 on 1 procs for 10000000 steps with 7 atoms

Performance: 2870.394 ns/day, 0.008 hours/ns, 332221.550 timesteps/s
97.6% CPU use with 1 MPI tasks x 1 OpenMP threads

MPI task timing breakdown:
Section |  min time  |  avg time  |  max time  |%varavg| %total
---------------------------------------------------------------
Pair    | 4.2682     | 4.2682     | 4.2682     |   0.0 | 14.18
Neigh   | 3.9239     | 3.9239     | 3.9239     |   0.0 | 13.04
Comm    | 2.7258     | 2.7258     | 2.7258     |   0.0 |  9.06
Output  | 0.73213    | 0.73213    | 0.73213    |   0.0 |  2.43
Modify  | 15.349     | 15.349     | 15.349     |   0.0 | 50.99
Other   |            | 3.101      |            |       | 10.30

Nlocal:        7.00000 ave           7 max           7 min
Histogram: 1 0 0 0 0 0 0 0 0 0
Nghost:        3.00000 ave           3 max           3 min
Histogram: 1 0 0 0 0 0 0 0 0 0
Neighs:         0.00000 ave           0 max           0 min
Histogram: 1 0 0 0 0 0 0 0 0 0
FullNghs:       0.00000 ave           0 max           0 min
Histogram: 1 0 0 0 0 0 0 0 0 0

Total # of neighbors = 0
Ave neighs/atom = 0.0000000
Neighbor list builds = 144686
Dangerous builds = 0

write_restart endconf*1.restart
System init for write_restart ...

# ---------- Run MD ATTENTE ---------------------
unfix 3

thermo ${iexport}
thermo 50000
thermo_style custom step  temp etotal epair ebond pe ke
fix             6 all temp/berendsen ${tempchauff} ${tempchauff} ${Tdamp}
fix             6 all temp/berendsen 3000 ${tempchauff} ${Tdamp}
fix             6 all temp/berendsen 3000 3000 ${Tdamp}
fix             6 all temp/berendsen 3000 3000 0.001
run		${iterther}
run		100000
Per MPI rank memory allocation (min/avg/max) = 5.354 | 5.354 | 5.354 Mbytes
Step Temp TotEng E_pair E_bond PotEng KinEng 
10000000    2999.9973    2.3266805            0            0            0    2.3266805 
10050000         3000    2.3266826            0            0            0    2.3266826 
10100000         3000    2.3266826            0            0            0    2.3266826 
Loop time of 0.331091 on 1 procs for 100000 steps with 7 atoms

Performance: 2609.553 ns/day, 0.009 hours/ns, 302031.607 timesteps/s
98.5% CPU use with 1 MPI tasks x 1 OpenMP threads

MPI task timing breakdown:
Section |  min time  |  avg time  |  max time  |%varavg| %total
---------------------------------------------------------------
Pair    | 0.044841   | 0.044841   | 0.044841   |   0.0 | 13.54
Neigh   | 0.062755   | 0.062755   | 0.062755   |   0.0 | 18.95
Comm    | 0.027294   | 0.027294   | 0.027294   |   0.0 |  8.24
Output  | 0.0055996  | 0.0055996  | 0.0055996  |   0.0 |  1.69
Modify  | 0.15898    | 0.15898    | 0.15898    |   0.0 | 48.02
Other   |            | 0.03163    |            |       |  9.55

Nlocal:        7.00000 ave           7 max           7 min
Histogram: 1 0 0 0 0 0 0 0 0 0
Nghost:        3.00000 ave           3 max           3 min
Histogram: 1 0 0 0 0 0 0 0 0 0
Neighs:         0.00000 ave           0 max           0 min
Histogram: 1 0 0 0 0 0 0 0 0 0
FullNghs:       0.00000 ave           0 max           0 min
Histogram: 1 0 0 0 0 0 0 0 0 0

Total # of neighbors = 0
Ave neighs/atom = 0.0000000
Neighbor list builds = 2173
Dangerous builds = 0

write_restart endconf*2.restart
System init for write_restart ...

# ---------- Run MD REFROIDISSEMENT ---------------------
unfix 6

thermo ${iexport}
thermo 50000
thermo_style custom step  temp etotal epair ebond pe ke
fix             7 all temp/berendsen ${tempchauff} 0.0 ${Tdamp}
fix             7 all temp/berendsen 3000 0.0 ${Tdamp}
fix             7 all temp/berendsen 3000 0.0 0.001
run		${iter}
run		10000000
Per MPI rank memory allocation (min/avg/max) = 5.354 | 5.354 | 5.354 Mbytes
Step Temp TotEng E_pair E_bond PotEng KinEng 
10100000         3000    2.3266826            0            0            0    2.3266826 
10150000    2985.0027    2.3150513            0            0            0    2.3150513 
10200000    2970.0027    2.3034179            0            0            0    2.3034179 
10250000    2955.0027    2.2917845            0            0            0    2.2917845 
10300000    2940.0027    2.2801511            0            0            0    2.2801511 
10350000    2925.0027    2.2685176            0            0            0    2.2685176 
10400000    2910.0027    2.2568842            0            0            0    2.2568842 
10450000    2895.0027    2.2452508            0            0            0    2.2452508 
10500000    2880.0027    2.2336174            0            0            0    2.2336174 
10550000    2865.0027     2.221984            0            0            0     2.221984 
10600000    2850.0027    2.2103506            0            0            0    2.2103506 
10650000    2835.0027    2.1987172            0            0            0    2.1987172 
10700000    2820.0027    2.1870837            0            0            0    2.1870837 
10750000    2805.0027    2.1754503            0            0            0    2.1754503 
10800000    2790.0027    2.1638169            0            0            0    2.1638169 
10850000    2775.0027    2.1521835            0            0            0    2.1521835 
10900000    2760.0027    2.1405501            0            0            0    2.1405501 
10950000    2745.0027    2.1289167            0            0            0    2.1289167 
11000000    2730.0027    2.1172833            0            0            0    2.1172833 
11050000    2715.0624    -4.100979   -6.2066752            0   -6.2066752    2.1056962 
11100000    2699.4987   -4.1098019   -6.2034275            0   -6.2034275    2.0936256 
11150000    2684.5531   -4.1158896   -6.1979239            0   -6.1979239    2.0820343 
11200000    2670.4486   -4.1310473   -6.2021427            0   -6.2021427    2.0710954 
11250000    2655.1494   -4.1474253   -6.2066552            0   -6.2066552      2.05923 
11300000    2640.1618   -4.1594172   -6.2070234            0   -6.2070234    2.0476062 
11350000    2624.9665   -4.1718532   -6.2076746            0   -6.2076746    2.0358213 
11400000    2609.9826   -4.1838949   -6.2080952            0   -6.2080952    2.0242004 
11450000    2595.0809   -4.1947104   -6.2073536            0   -6.2073536    2.0126432 
11500000    2579.8726   -4.2059846   -6.2068329            0   -6.2068329    2.0008483 
11550000    2565.0474   -4.2187013   -6.2080518            0   -6.2080518    1.9893504 
11600000    2549.9293   -4.2291315   -6.2067568            0   -6.2067568    1.9776254 
11650000    2535.0013   -4.2426864   -6.2087342            0   -6.2087342    1.9660478 
11700000    2520.0321   -4.2541976   -6.2086359            0   -6.2086359    1.9544383 
11750000    2504.9868   -4.2659948   -6.2087645            0   -6.2087645    1.9427697 
11800000     2490.057   -4.2768582    -6.208049            0    -6.208049    1.9311908 
11850000    2475.0242    -4.287995   -6.2075269            0   -6.2075269    1.9195319 
11900000    2460.0281   -4.3008492   -6.2087507            0   -6.2087507    1.9079016 
11950000    2444.9696   -4.3120423   -6.2082651            0   -6.2082651    1.8962228 
12000000    2429.9722   -4.3238137    -6.208405            0    -6.208405    1.8845913 
12050000    2415.0187   -4.3360919   -6.2090859            0   -6.2090859     1.872994 
12100000    2400.0228   -4.3476411   -6.2090048            0   -6.2090048    1.8613637 
12150000    2384.9936   -4.3595172   -6.2092249            0   -6.2092249    1.8497077 
12200000    2369.9965   -4.3712396   -6.2093161            0   -6.2093161    1.8380765 
12250000    2355.0204   -4.3821989   -6.2086606            0   -6.2086606    1.8264616 
12300000    2340.0195   -4.3940991   -6.2089266            0   -6.2089266    1.8148276 
12350000    2324.9887   -4.4059429   -6.2091131            0   -6.2091131    1.8031702 
12400000    2310.0093   -4.4172978   -6.2088506            0   -6.2088506    1.7915528 
12450000    2294.9914   -4.4290668   -6.2089723            0   -6.2089723    1.7799055 
12500000    2280.0061   -4.4411836   -6.2094671            0   -6.2094671    1.7682835 
12550000    2265.0018   -4.4528649   -6.2095116            0   -6.2095116    1.7566467 
12600000    2250.0076   -4.4644685   -6.2094864            0   -6.2094864    1.7450179 
12650000    2234.9923   -4.4758643   -6.2092369            0   -6.2092369    1.7333726 
12700000    2220.0025   -4.4873871   -6.2091341            0   -6.2091341    1.7217471 
12750000    2204.9935   -4.4991422   -6.2092489            0   -6.2092489    1.7101067 
12800000    2190.0039   -4.5110955   -6.2095769            0   -6.2095769    1.6984814 
12850000    2174.9968   -4.5226383   -6.2094807            0   -6.2094807    1.6868424 
12900000    2159.9973   -4.5342885   -6.2094979            0   -6.2094979    1.6752094 
12950000    2145.0026   -4.5460344   -6.2096144            0   -6.2096144    1.6635801 
13000000    2130.0032   -4.5573606   -6.2093078            0   -6.2093078    1.6519472 
13050000    2115.0043   -4.5692016   -6.2095162            0   -6.2095162    1.6403146 
13100000     2100.009   -4.5808357   -6.2095205            0   -6.2095205    1.6286848 
13150000    2084.9991   -4.5923562   -6.2093999            0   -6.2093999    1.6170437 
13200000    2070.0037   -4.6042449   -6.2096587            0   -6.2096587    1.6054138 
13250000    2054.9998   -4.6158351   -6.2096125            0   -6.2096125    1.5937774 
13300000    2029.2303    -10.75721   -12.331002            0   -12.331002    1.5737916 
13350000    2040.1994   -11.124829   -12.707128            0   -12.707128    1.5822988 
13400000    2008.4992    -11.26724   -12.824953            0   -12.824953    1.5577134 
13450000    1996.4359   -11.323621   -12.871978            0   -12.871978    1.5483575 
13500000    1980.8025    -11.35898   -12.895213            0   -12.895213    1.5362329 
13550000    1965.1068   -11.369598   -12.893658            0   -12.893658    1.5240599 
13600000    1950.2978   -11.374647   -12.887222            0   -12.887222    1.5125747 
13650000    1934.5024   -11.395595    -12.89592            0    -12.89592    1.5003243 
13700000    1919.6848   -11.410867   -12.899699            0   -12.899699    1.4888324 
13750000    1905.0682   -11.412347   -12.889843            0   -12.889843    1.4774963 
13800000    1890.4874   -11.430342    -12.89653            0    -12.89653     1.466188 
13850000    1874.3643   -11.432036    -12.88572            0    -12.88572    1.4536836 
13900000    1859.7474   -11.450814   -12.893161            0   -12.893161    1.4423473 
13950000    1844.9363   -11.468694   -12.899554            0   -12.899554    1.4308604 
14000000    1829.5191   -11.477808   -12.896711            0   -12.896711    1.4189034 
14050000    1815.2008   -11.493015   -12.900814            0   -12.900814    1.4077987 
14100000    1799.7823   -11.504594   -12.900435            0   -12.900435    1.3958407 
14150000    1785.0299    -11.51552   -12.899919            0   -12.899919    1.3843993 
14200000    1770.0525   -11.527879   -12.900663            0   -12.900663    1.3727834 
14250000    1755.0957   -11.537299   -12.898483            0   -12.898483    1.3611835 
14300000    1739.9271   -11.551182   -12.900601            0   -12.900601    1.3494194 
14350000    1732.4447   -17.752283   -19.095899            0   -19.095899    1.3436163 
14400000    1710.8757   -17.779098   -19.105987            0   -19.105987    1.3268882 
14450000    1694.9773   -17.793654   -19.108212            0   -19.108212    1.3145581 
14500000    1679.9285   -17.804429   -19.107316            0   -19.107316    1.3028868 
14550000    1665.1493   -17.815477   -19.106902            0   -19.106902    1.2914247 
14600000     1650.309   -17.826752   -19.106667            0   -19.106667    1.2799151 
14650000    1634.9522   -17.835906   -19.103911            0   -19.103911    1.2680049 
14700000    1619.9175   -17.851651   -19.107996            0   -19.107996    1.2563446 
14750000    1604.8133   -17.864264   -19.108894            0   -19.108894    1.2446304 
14800000     1590.091   -17.873874   -19.107087            0   -19.107087    1.2332123 
14850000    1574.8961   -17.885351   -19.106779            0   -19.106779    1.2214278 
14900000      1559.82   -17.899497   -19.109233            0   -19.109233    1.2097354 
14950000    1544.9487   -17.910866   -19.109068            0   -19.109068    1.1982017 
15000000    1530.1261   -17.923054    -19.10976            0    -19.10976    1.1867059 
15050000    1515.0835   -17.932763   -19.107802            0   -19.107802    1.1750394 
15100000    1499.9798   -17.945605    -19.10893            0    -19.10893    1.1633256 
15150000    1484.9216   -17.958232   -19.109879            0   -19.109879    1.1516471 
15200000    1469.8916    -17.96949   -19.109481            0   -19.109481    1.1399904 
15250000     1454.998    -17.98047   -19.108909            0   -19.108909    1.1284395 
15300000    1440.0511   -17.993497   -19.110344            0   -19.110344    1.1168473 
15350000    1425.0063   -18.004597   -19.109776            0   -19.109776    1.1051791 
15400000      1409.87   -18.015867   -19.109307            0   -19.109307      1.09344 
15450000    1394.8471   -18.027363   -19.109152            0   -19.109152    1.0817888 
15500000    1380.0772   -18.039819   -19.110152            0   -19.110152    1.0703339 
15550000    1365.0905     -18.0514   -19.110111            0   -19.110111    1.0587108 
15600000    1350.0532   -18.063094   -19.110143            0   -19.110143    1.0470485 
15650000    1335.0211   -18.074304   -19.109694            0   -19.109694    1.0353902 
15700000    1319.9337   -18.086881    -19.11057            0    -19.11057     1.023689 
15750000    1305.0778   -18.098185   -19.110353            0   -19.110353    1.0121673 
15800000    1290.0051   -18.109391   -19.109868            0   -19.109868    1.0004775 
15850000    1275.0359   -18.121736   -19.110604            0   -19.110604   0.98886797 
15900000    1259.9592   -18.133301   -19.110476            0   -19.110476   0.97717505 
15950000    1245.0354   -18.144845   -19.110446            0   -19.110446   0.96560077 
16000000    1229.9864   -18.156809   -19.110738            0   -19.110738   0.95392935 
16050000    1215.0045   -18.168309   -19.110619            0   -19.110619   0.94230993 
16100000    1200.0195   -18.179972    -19.11066            0    -19.11066   0.93068814 
16150000    1185.0195   -18.191333   -19.110388            0   -19.110388   0.91905473 
16200000     1169.995   -18.203243   -19.110645            0   -19.110645   0.90740234 
16250000    1155.0159   -18.215135   -19.110921            0   -19.110921    0.8957851 
16300000    1139.9941   -18.226855    -19.11099            0    -19.11099   0.88413482 
16350000    1124.9932     -18.2387   -19.111201            0   -19.111201   0.87250071 
16400000    1110.0059    -18.25022   -19.111097            0   -19.111097   0.86087718 
16450000    1094.9976   -18.261877   -19.111114            0   -19.111114   0.84923725 
16500000    1080.0142   -18.273546   -19.111162            0   -19.111162   0.83761674 
16550000    1065.0135   -18.285286   -19.111269            0   -19.111269   0.82598277 
16600000    1049.9951   -18.296896   -19.111231            0   -19.111231   0.81433509 
16650000    1035.0128   -18.308519   -19.111234            0   -19.111234   0.80271542 
16700000     1020.006   -18.320226   -19.111303            0   -19.111303   0.79107678 
16750000    1004.9796   -18.332307    -19.11173            0    -19.11173   0.77942282 
16800000    989.99332    -18.34342    -19.11122            0    -19.11122   0.76780008 
16850000    975.00547   -18.355078   -19.111255            0   -19.111255   0.75617609 
16900000     960.0139   -18.366682   -19.111232            0   -19.111232   0.74454921 
16950000    944.99671   -18.378487   -19.111389            0   -19.111389   0.73290247 
17000000     930.0063   -18.390103    -19.11138            0    -19.11138    0.7212765 
17050000    914.99854   -18.401759   -19.111396            0   -19.111396   0.70963707 
17100000    899.99639   -18.413294   -19.111296            0   -19.111296   0.69800199 
17150000    885.00528   -18.424957   -19.111332            0   -19.111332   0.68637546 
17200000    870.00244   -18.436664   -19.111404            0   -19.111404   0.67473985 
17250000    855.00306   -18.448152   -19.111259            0   -19.111259   0.66310691 
17300000    840.00358   -18.459935   -19.111409            0   -19.111409   0.65147391 
17350000    824.99881   -18.471604   -19.111441            0   -19.111441    0.6398368 
17400000    810.00258   -18.483265   -19.111472            0   -19.111472    0.6282063 
17450000    795.00273   -18.494794   -19.111367            0   -19.111367   0.61657301 
17500000     780.0017   -18.506457   -19.111396            0   -19.111396    0.6049388 
17550000    765.00226   -18.518172   -19.111477            0   -19.111477   0.59330582 
17600000    750.00028   -18.529834   -19.111505            0   -19.111505   0.58167087 
17650000    735.00127   -18.541399   -19.111437            0   -19.111437   0.57003823 
17700000    720.00391    -18.55307   -19.111477            0   -19.111477   0.55840686 
17750000    705.00311   -18.564708   -19.111481            0   -19.111481   0.54677283 
17800000    690.00238    -18.57638   -19.111518            0   -19.111518   0.53513885 
17850000     675.0031   -18.588001   -19.111507            0   -19.111507   0.52350599 
17900000    660.00147   -18.599636   -19.111508            0   -19.111508   0.51187131 
17950000     645.0031   -18.611294   -19.111533            0   -19.111533   0.50023916 
18000000    630.00219    -18.62295   -19.111555            0   -19.111555   0.48860504 
18050000    615.00113   -18.634599    -19.11157            0    -19.11157   0.47697081 
18100000    600.00351   -18.646214   -19.111554            0   -19.111554   0.46533924 
18150000    585.00318   -18.657901   -19.111606            0   -19.111606   0.45370557 
18200000    570.00131   -18.669494   -19.111564            0   -19.111564   0.44207071 
18250000    555.00314   -18.681134   -19.111573            0   -19.111573   0.43043871 
18300000    540.00352   -18.692784    -19.11159            0    -19.11159    0.4188056 
18350000    525.00262   -18.704383   -19.111555            0   -19.111555   0.40717149 
18400000    510.00292    -18.71606   -19.111598            0   -19.111598   0.39553831 
18450000    495.00262   -18.727693   -19.111598            0   -19.111598   0.38390466 
18500000    480.00294   -18.739357   -19.111629            0   -19.111629    0.3722715 
18550000    465.00235   -18.750981   -19.111618            0   -19.111618   0.36063763 
18600000    450.00243   -18.762614   -19.111618            0   -19.111618   0.34900428 
18650000    435.00324   -18.774255   -19.111627            0   -19.111627   0.33737149 
18700000    420.00255   -18.785878   -19.111616            0   -19.111616   0.32573755 
18750000    405.00309   -18.797535   -19.111639            0   -19.111639   0.31410455 
18800000    390.00237   -18.809171   -19.111641            0   -19.111641   0.30247058 
18850000    375.00259   -18.820804   -19.111641            0   -19.111641   0.29083733 
18900000    360.00267   -18.832441   -19.111645            0   -19.111645   0.27920398 
18950000    345.00288   -18.844078   -19.111649            0   -19.111649   0.26757074 
19000000    330.00281   -18.855718   -19.111655            0   -19.111655   0.25593727 
19050000    315.00293   -18.867352   -19.111656            0   -19.111656   0.24430394 
19100000    300.00279   -18.878993   -19.111663            0   -19.111663   0.23267042 
19150000    285.00277   -18.890623    -19.11166            0    -19.11166     0.221037 
19200000     270.0028    -18.90226   -19.111664            0   -19.111664   0.20940361 
19250000    255.00262   -18.913893   -19.111663            0   -19.111663   0.19777006 
19300000    240.00255    -18.92553   -19.111667            0   -19.111667   0.18613659 
19350000     225.0026   -18.937164   -19.111668            0   -19.111668   0.17450321 
19400000    210.00268   -18.948795   -19.111665            0   -19.111665   0.16286986 
19450000    195.00265   -18.960434   -19.111671            0   -19.111671   0.15123642 
19500000    180.00273    -18.97207   -19.111673            0   -19.111673   0.13960308 
19550000    165.00268   -18.983705   -19.111675            0   -19.111675   0.12796962 
19600000    150.00266   -18.995339   -19.111675            0   -19.111675   0.11633619 
19650000    135.00269   -19.006974   -19.111677            0   -19.111677   0.10470281 
19700000    120.00273   -19.018608   -19.111677            0   -19.111677  0.093069421 
19750000    105.00268   -19.030242   -19.111678            0   -19.111678  0.081435973 
19800000    90.002722   -19.041876   -19.111679            0   -19.111679   0.06980259 
19850000    75.002717    -19.05351    -19.11168            0    -19.11168  0.058169172 
19900000    60.002679   -19.065144    -19.11168            0    -19.11168   0.04653573 
19950000    45.002688   -19.076778   -19.111681            0   -19.111681  0.034902324 
20000000     30.00271   -19.088412   -19.111681            0   -19.111681  0.023268928 
20050000    15.002693   -19.100046   -19.111681            0   -19.111681  0.011635501 
20100000 0.0027001802   -19.111679   -19.111681            0   -19.111681 2.0941541e-06 
Loop time of 47.5696 on 1 procs for 10000000 steps with 7 atoms

Performance: 1816.288 ns/day, 0.013 hours/ns, 210218.474 timesteps/s
98.4% CPU use with 1 MPI tasks x 1 OpenMP threads

MPI task timing breakdown:
Section |  min time  |  avg time  |  max time  |%varavg| %total
---------------------------------------------------------------
Pair    | 20.738     | 20.738     | 20.738     |   0.0 | 43.60
Neigh   | 4.2597     | 4.2597     | 4.2597     |   0.0 |  8.95
Comm    | 2.6662     | 2.6662     | 2.6662     |   0.0 |  5.60
Output  | 0.80008    | 0.80008    | 0.80008    |   0.0 |  1.68
Modify  | 15.753     | 15.753     | 15.753     |   0.0 | 33.12
Other   |            | 3.352      |            |       |  7.05

Nlocal:        7.00000 ave           7 max           7 min
Histogram: 1 0 0 0 0 0 0 0 0 0
Nghost:        6.00000 ave           6 max           6 min
Histogram: 1 0 0 0 0 0 0 0 0 0
Neighs:         0.00000 ave           0 max           0 min
Histogram: 1 0 0 0 0 0 0 0 0 0
FullNghs:      8.00000 ave           8 max           8 min
Histogram: 1 0 0 0 0 0 0 0 0 0

Total # of neighbors = 8
Ave neighs/atom = 1.1428571
Neighbor list builds = 159140
Dangerous builds = 0
write_restart endconf*3.restart
System init for write_restart ...



Total wall time: 0:01:18
