LAMMPS (29 Sep 2021 - Update 2)
OMP_NUM_THREADS environment is not set. Defaulting to 1 thread. (src/comm.cpp:98)
  using 1 OpenMP thread(s) per MPI task
#============Initialization=================
units 			metal
atom_style 		atomic
boundary 		p p p

############################################
#              CLI Variables               #
############################################
variable 		seed index 200093          #
variable 		N index 7                  #
variable 		iter index 1000000         #
variable 		iterther index 100000      #
variable 		iexport index 1000         #
variable 		tempchauf index 3000       #
variable 		Tdamp index 0.001          #
variable 		timestep index 0.0001      #
variable 		box_size index 10		   #
############################################
############################################

#=========Simulation box definition=========
lattice 		sc 1.0
Lattice spacing in x,y,z = 1.0000000 1.0000000 1.0000000
region 			bigbox block 0 ${box_size} 0 ${box_size} 0 ${box_size}
region 			bigbox block 0 10 0 ${box_size} 0 ${box_size}
region 			bigbox block 0 10 0 10 0 ${box_size}
region 			bigbox block 0 10 0 10 0 10
create_box 		1 bigbox
Created orthogonal box = (0.0000000 0.0000000 0.0000000) to (10.000000 10.000000 10.000000)
  1 by 1 by 1 MPI processor grid

#==================Atoms====================
region 			safezone block 6 9 6 9 6 9 units box
create_atoms 	1 random ${N} ${seed} safezone
create_atoms 	1 random 7 ${seed} safezone
create_atoms 	1 random 7 200093 safezone
Created 7 atoms
  using lattice units in orthogonal box = (0.0000000 0.0000000 0.0000000) to (10.000000 10.000000 10.000000)
  create_atoms CPU = 0.001 seconds
mass 			* 12.01



#==========Velocity initialization==========
velocity 		all create 0.0000001 1563967 rot yes dist gaussian

#======Pair style for atom interactions=============
pair_style 		airebo 1.8 1 1
pair_coeff 		* * CH.airebo C
Reading airebo potential file CH.airebo with DATE: 2011-10-25

#==============Neighbor selection===================
neighbor 		0.3 bin
neigh_modify 	every 1 delay 0 check yes


#=====================Timestep======================
timestep 		${timestep}
timestep 		0.0001

#===============Define dump command=================
dump 			1 all cfg 100000 ./dump/dump.tensile_*.cfg mass type xs ys zs vx vy vz id

#========System temperature printing info===========
thermo_style 	custom step temp etotal epair pe ke
thermo 			${iexport}
thermo 			1000


#====================CRC Cycle======================

#=============Condensation et chauffe===============
fix 			1 all nve
fix 			2 all temp/berendsen 0.0 ${tempchauf} ${Tdamp}
fix 			2 all temp/berendsen 0.0 3000 ${Tdamp}
fix 			2 all temp/berendsen 0.0 3000 0.001
fix             3 all momentum 1 linear 1 1 1 angular rescale

run 			${iter}
run 			1000000
Neighbor list info ...
  update every 1 steps, delay 0 steps, check yes
  max neighbors/atom: 2000, page size: 100000
  master list distance cutoff = 8.116371
  ghost atom cutoff = 8.116371
  binsize = 4.0581855, bins = 3 3 3
  1 neighbor lists, perpetual/occasional/extra = 1 0 0
  (1) pair airebo, perpetual
      attributes: full, newton on, ghost
      pair build: full/bin/ghost
      stencil: full/ghost/bin/3d
      bin: standard
Per MPI rank memory allocation (min/avg/max) = 5.129 | 5.129 | 5.129 Mbytes
	Step 		Temp 		TotEng 		E_pair 		PotEng 		KinEng 
       0        1e-07    1284.8674    1284.8674    1284.8674 7.7556087e-11 
    1000    14.920017   -24.183773   -24.195344   -24.195344  0.011571382 
    2000    11.671363   -24.843486   -24.852538   -24.852538 0.0090518526 
    3000    289.48937     -29.1572   -29.381717   -29.381717   0.22451663 
    4000    17.592557   -31.584686   -31.598331   -31.598331  0.013644099 
    5000    16.691701    -31.86989   -31.882836   -31.882836   0.01294543 
    6000    17.467709   -31.928195   -31.941743   -31.941743  0.013547272 
    7000    22.816894    -31.86894   -31.886636   -31.886636   0.01769589 
    8000    22.809643   -31.906913   -31.924603   -31.924603  0.017690266 
    9000    28.397059   -31.883775   -31.905799   -31.905799  0.022023648 
   10000     27.93505   -31.882815    -31.90448    -31.90448  0.021665332 
   11000    35.067905   -31.886135   -31.913333   -31.913333  0.027197295 
   12000    33.606772   -31.830947   -31.857011   -31.857011  0.026064098 
   13000    39.684164   -31.906713    -31.93749    -31.93749  0.030777484 
   14000    40.899949   -31.779554   -31.811275   -31.811275    0.0317204 
   15000     43.42425   -31.897371   -31.931049   -31.931049  0.033678149 
   16000    55.105447   -31.745391   -31.788129   -31.788129  0.042737628 
   17000     47.67374   -31.861732   -31.898706   -31.898706  0.036973888 
   18000    53.721391   -31.881302   -31.922966   -31.922966  0.041664209 
   19000    56.575133   -31.805308   -31.849186   -31.849186  0.043877459 
   20000    56.490227   -31.876903   -31.920714   -31.920714  0.043811609 
   21000    65.048816   -31.859382   -31.909831   -31.909831  0.050449317 
   22000    65.520433   -31.743126   -31.793941   -31.793941  0.050815084 
   23000    66.315803   -31.837367   -31.888799   -31.888799  0.051431942 
   24000    73.472602   -31.839573   -31.896555   -31.896555  0.056982475 
   25000    71.627786   -31.777989    -31.83354    -31.83354  0.055551708 
   26000    75.624683   -31.806368   -31.865019   -31.865019  0.058651545 
   27000    81.209132   -31.859417     -31.9224     -31.9224  0.062982625 
   28000    81.647778   -31.790076   -31.853399   -31.853399  0.063322822 
   29000    86.324438   -31.787855   -31.854805   -31.854805  0.066949856 
   30000    87.874933   -31.829381   -31.897533   -31.897533   0.06815236 
   31000    98.246656   -31.776825   -31.853021   -31.853021  0.076196262 
   32000    93.156048    -31.75297   -31.825218   -31.825218  0.072248185 
   33000    96.075066   -31.779851   -31.854363   -31.854363  0.074512062 
   34000    102.58065   -31.792426   -31.871984   -31.871984  0.079557542 
   35000    103.68464   -31.722846   -31.803259   -31.803259  0.080413748 
   36000    101.98319    -31.74177   -31.820864   -31.820864   0.07909417 
   37000    112.63909   -31.775181    -31.86254    -31.86254  0.087358472 
   38000    111.77743   -31.792263   -31.878953   -31.878953  0.086690203 
   39000    117.86409   -31.787603   -31.879014   -31.879014  0.091410775 
   40000    118.93151    -31.78162   -31.873858   -31.873858  0.092238625 
   41000    120.36966   -31.762501   -31.855855   -31.855855     0.093354 
   42000    125.36117   -31.765635    -31.86286    -31.86286  0.097225221 
   43000    129.51819   -31.741978   -31.842427   -31.842427   0.10044924 
   44000    132.39673   -31.773449   -31.876131   -31.876131   0.10268172 
   45000    130.13862   -31.678539   -31.779469   -31.779469   0.10093042 
   46000    138.87827   -31.694909   -31.802618   -31.802618   0.10770856 
   47000    144.43825   -31.688673   -31.800694   -31.800694   0.11202066 
   48000    149.19327   -31.746452    -31.86216    -31.86216   0.11570846 
   49000    148.43014   -31.703654    -31.81877    -31.81877   0.11511661 
   50000    140.20372   -31.684475   -31.793212   -31.793212   0.10873652 
   51000    152.50737   -31.690466   -31.808745   -31.808745   0.11827875 
   52000    162.05587   -31.652786    -31.77847    -31.77847   0.12568419 
   53000    168.74216   -31.706881    -31.83775    -31.83775   0.13086982 
   54000    158.97229   -31.708359   -31.831651   -31.831651   0.12329269 
   55000    154.06556    -31.68688   -31.806367   -31.806367   0.11948722 
   56000    158.06149   -31.636715   -31.759302   -31.759302   0.12258631 
   57000     175.0837   -31.686339   -31.822127   -31.822127   0.13578806 
   58000     169.2588   -31.756653   -31.887924   -31.887924    0.1312705 
   59000    178.49777   -31.724785   -31.863221   -31.863221   0.13843589 
   60000    203.34197   -31.596165   -31.753869   -31.753869   0.15770407 
   61000    163.61507     -31.5571   -31.683994   -31.683994   0.12689344 
   62000     190.6601   -31.593777   -31.741646   -31.741646   0.14786852 
   63000    172.49226    -31.59355   -31.727328   -31.727328   0.13377824 
   64000    184.26085    -31.63417   -31.777076   -31.777076    0.1429055 
   65000    208.20406   -31.710696   -31.872171   -31.872171   0.16147492 
   66000    198.99596   -31.626888   -31.781222   -31.781222   0.15433348 
   67000    209.68793   -31.395701   -31.558327   -31.558327   0.16262575 
   68000    193.36674   -31.646104   -31.796071   -31.796071   0.14996767 
   69000    202.90005   -31.734058   -31.891419   -31.891419   0.15736134 
   70000    210.91383   -31.498149   -31.661725   -31.661725   0.16357651 
   71000    203.32001   -31.405767   -31.563454   -31.563454   0.15768704 
   72000    214.33474   -31.691767   -31.857997   -31.857997   0.16622963 
   73000    223.63262    -31.59275   -31.766191   -31.766191   0.17344071 
   74000    236.05969   -31.400351    -31.58343    -31.58343   0.18307866 
   75000    229.12904   -31.630242   -31.807945   -31.807945   0.17770352 
   76000    227.22766   -31.666244   -31.842473   -31.842473   0.17622888 
   77000    232.18079   -31.541188   -31.721258   -31.721258   0.18007034 
   78000    230.45961    -31.36912   -31.547856   -31.547856   0.17873546 
   79000    227.34438     -31.5713   -31.747619   -31.747619   0.17631941 
   80000    244.85773   -31.649697   -31.839599   -31.839599   0.18990207 
   81000    253.13798   -31.539554   -31.735878   -31.735878   0.19632391 
   82000    242.49499   -31.418965   -31.607035   -31.607035   0.18806963 
   83000    241.98239   -31.550765   -31.738437   -31.738437   0.18767207 
   84000    253.72262   -31.630984   -31.827761   -31.827761   0.19677734 
   85000    232.59047   -31.399522    -31.57991    -31.57991   0.18038807 
   86000    267.00264   -31.392135   -31.599212   -31.599212    0.2070768 
   87000    260.06062   -31.507178    -31.70887    -31.70887   0.20169284 
   88000    255.44875   -31.637293   -31.835409   -31.835409   0.19811605 
   89000    277.93384   -31.505238   -31.720793   -31.720793   0.21555461 
   90000    287.90939   -31.454373   -31.677665   -31.677665   0.22329126 
   91000    266.92995   -31.555971   -31.762992   -31.762992   0.20702043 
   92000    272.58862   -31.491963   -31.703372   -31.703372   0.21140907 
   93000    278.04819   -31.499727    -31.71537    -31.71537    0.2156433 
   94000    269.92166   -31.369714   -31.579054   -31.579054   0.20934068 
   95000    279.84944   -31.510755   -31.727795   -31.727795   0.21704027 
   96000    288.82221   -31.504312   -31.728311   -31.728311    0.2239992 
   97000    302.98537   -31.441909   -31.676893   -31.676893    0.2349836 
   98000    291.69771   -31.421837   -31.648066   -31.648066   0.22622933 
   99000    310.09644   -31.384396   -31.624894   -31.624894   0.24049866 
  100000    267.77557   -31.373075   -31.580751   -31.580751   0.20767625 
  101000    293.13554    -31.31342   -31.540764   -31.540764   0.22734445 
  102000    325.69884   -31.530269   -31.782868   -31.782868   0.25259928 
  103000    318.22309   -31.458124   -31.704926   -31.704926   0.24680138 
  104000    316.04317   -31.428936   -31.674046   -31.674046   0.24511072 
  105000    313.23837   -31.440748   -31.683683   -31.683683   0.24293542 
  106000    352.49385   -31.458928   -31.732309   -31.732309   0.27338044 
  107000    287.96505   -31.340954   -31.564288   -31.564288   0.22333443 
  108000    329.96165   -31.513037   -31.768943   -31.768943   0.25590534 
  109000    342.26381    -31.59117   -31.856617   -31.856617   0.26544642 
  110000    310.13247   -31.335187   -31.575714   -31.575714   0.24052661 
  111000    340.61331   -31.177512   -31.441678   -31.441678   0.26416636 
  112000    354.03743   -31.299423      -31.574      -31.574   0.27457758 
  113000    359.93517    -31.51232   -31.791471   -31.791471   0.27915163 
  114000    367.42204   -31.243919   -31.528877   -31.528877   0.28495815 
  115000    333.18783   -31.312694   -31.571101   -31.571101   0.25840744 
  116000    333.23877   -31.498493    -31.75694    -31.75694   0.25844695 
  117000    326.48653    -31.47164    -31.72485    -31.72485   0.25321018 
  118000    370.33728   -31.367154   -31.654373   -31.654373   0.28721911 
  119000     361.3303    -31.31153   -31.591764   -31.591764   0.28023364 
  120000    356.94596   -31.511037    -31.78787    -31.78787   0.27683332 
  121000    380.67562   -31.333434   -31.628671   -31.628671   0.29523711 
  122000    316.93907   -31.184724   -31.430529   -31.430529   0.24580554 
  123000    351.12698   -31.331859   -31.604179   -31.604179   0.27232035 
  124000    386.96261    -31.46216   -31.762273   -31.762273   0.30011306 
  125000    389.96963   -31.358732   -31.661177   -31.661177   0.30244519 
  126000    353.41259   -31.335375   -31.609468   -31.609468   0.27409298 
  127000    368.43963   -31.440529   -31.726276   -31.726276   0.28574736 
  128000    363.25904   -31.339317   -31.621046   -31.621046    0.2817295 
  129000     421.3256   -31.432246   -31.759009   -31.759009   0.32676365 
  130000    398.94655   -31.363345   -31.672752   -31.672752   0.30940733 
  131000    379.90998   -31.253132   -31.547776   -31.547776   0.29464331 
  132000     402.7018    -31.23357    -31.54589    -31.54589   0.31231976 
  133000    382.56474   -31.323338    -31.62004    -31.62004   0.29670225 
  134000    418.17356   -31.121741    -31.44606    -31.44606   0.32431905 
  135000    383.27133   -31.249408   -31.546658   -31.546658   0.29725025 
  136000    381.44137   -31.301899    -31.59773    -31.59773     0.295831 
  137000    407.07209   -31.102089   -31.417798   -31.417798   0.31570919 
  138000    384.62411   -31.112622   -31.410921   -31.410921   0.29829941 
  139000    431.93509    -31.42711   -31.762101   -31.762101   0.33499195 
  140000    439.70844   -31.275394   -31.616415   -31.616415   0.34102066 
  141000    439.04469   -31.302248   -31.642754   -31.642754   0.34050588 
  142000    407.94351   -31.291333   -31.607718   -31.607718   0.31638503 
  143000    388.95961   -31.120255   -31.421917   -31.421917   0.30166185 
  144000    414.64654   -31.345562   -31.667145   -31.667145   0.32158363 
  145000    444.83736   -31.305715   -31.650713   -31.650713   0.34499845 
  146000    402.32468   -30.974075   -31.286103   -31.286103   0.31202728 
  147000    449.50834   -31.357258   -31.705879   -31.705879   0.34862108 
  148000    409.56277   -31.303509    -31.62115    -31.62115   0.31764086 
  149000    464.25109    -31.25444   -31.614495   -31.614495   0.36005498 
  150000    422.04964   -30.945634    -31.27296    -31.27296   0.32732518 
  151000    399.48712   -31.246057   -31.555884   -31.555884   0.30982658 
  152000     449.3488   -31.369873   -31.718371   -31.718371   0.34849734 
  153000    472.73613   -31.048208   -31.414844   -31.414844   0.36663564 
  154000    471.45108   -31.188946   -31.554585   -31.554585   0.36563901 
  155000    477.80173   -31.091244   -31.461809   -31.461809   0.37056433 
  156000    482.43213   -31.306449   -31.680605   -31.680605   0.37415548 
  157000    477.71619   -31.160341   -31.530839   -31.530839   0.37049799 
  158000    482.07984   -31.238108   -31.611991   -31.611991   0.37388226 
  159000    487.24539   -31.148777   -31.526666   -31.526666   0.37788846 
  160000    428.19412   -31.273136   -31.605226   -31.605226   0.33209061 
  161000    516.32349   -31.180803   -31.581244   -31.581244   0.40044029 
  162000    477.49501   -31.127012   -31.497339   -31.497339   0.37032644 
  163000    522.92639   -30.965109    -31.37067    -31.37067   0.40556125 
  164000    449.28251    -31.06253   -31.410976   -31.410976   0.34844594 
  165000    516.97048   -31.425624   -31.826566   -31.826566   0.40094208 
  166000    517.93682   -31.204222   -31.605914   -31.605914   0.40169153 
  167000    516.58716   -31.007107   -31.407752   -31.407752   0.40064479 
  168000    498.08548   -31.257924    -31.64422    -31.64422   0.38629561 
  169000    522.73567    -31.08513   -31.490543   -31.490543   0.40541333 
  170000    516.67489   -31.073384   -31.474097   -31.474097   0.40071283 
  171000     517.3817   -31.142645   -31.543906   -31.543906     0.401261 
  172000    510.07838   -31.234836   -31.630433   -31.630433   0.39559683 
  173000     510.8655   -31.140477   -31.536684   -31.536684   0.39620729 
  174000    485.86796    -31.07766    -31.45448    -31.45448   0.37682018 
  175000    535.18745   -31.201977   -31.617048   -31.617048   0.41507044 
  176000    549.51564   -30.773429   -31.199612   -31.199612   0.42618282 
  177000     502.1159   -31.157953   -31.547374   -31.547374   0.38942144 
  178000    555.25088   -31.293236   -31.723867   -31.723867   0.43063086 
  179000    538.03914   -30.926096   -31.343378   -31.343378    0.4172821 
  180000     580.9919    -30.89336   -31.343955   -31.343955   0.45059458 
  181000    534.58445   -31.133307    -31.54791    -31.54791   0.41460278 
  182000    557.93889   -31.142732   -31.575448   -31.575448   0.43271557 
  183000    538.44102   -30.922463   -31.340057   -31.340057   0.41759378 
  184000    567.23671   -31.189789   -31.629715   -31.629715    0.4399266 
  185000    554.38843    -30.87471   -31.304672   -31.304672   0.42996197 
  186000    532.36228   -31.018359   -31.431238   -31.431238   0.41287936 
  187000    580.33852   -30.795418   -31.245506   -31.245506   0.45008785 
  188000    582.65163   -31.276334   -31.728216   -31.728216   0.45188181 
  189000    580.39798   -31.291853   -31.741987   -31.741987   0.45013396 
  190000    548.34313   -30.926469   -31.351743   -31.351743   0.42527347 
  191000    582.31161   -30.919231   -31.370849   -31.370849    0.4516181 
  192000    592.83302   -31.138731   -31.598509   -31.598509   0.45977809 
  193000    648.94156   -31.104538   -31.607832   -31.607832   0.50329368 
  194000    599.14964   -30.810449   -31.275126   -31.275126   0.46467702 
  195000    554.26164   -31.161384   -31.591248   -31.591248   0.42986364 
  196000    556.73059   -30.953958   -31.385736   -31.385736   0.43177846 
  197000    601.82382   -30.902931   -31.369682   -31.369682     0.466751 
  198000    649.70094   -30.977271   -31.481154   -31.481154   0.50388263 
  199000    620.74278   -30.875769   -31.357193   -31.357193   0.48142381 
  200000    597.77362   -31.138233   -31.601843   -31.601843   0.46360983 
  201000    617.47763   -30.702802   -31.181693   -31.181693   0.47889149 
  202000    638.57189   -30.944654   -31.439905   -31.439905   0.49525137 
  203000    595.89297   -31.028436   -31.490587   -31.490587   0.46215127 
  204000    610.66332   -30.749664   -31.223271   -31.223271   0.47360657 
  205000    598.90467   -30.791203    -31.25569    -31.25569   0.46448703 
  206000    620.82344   -30.993111   -31.474598   -31.474598   0.48148636 
  207000    547.48241   -31.066624    -31.49123    -31.49123   0.42460593 
  208000    610.39872   -30.905186   -31.378587   -31.378587   0.47340136 
  209000    634.38779   -30.786211   -31.278217   -31.278217   0.49200635 
  210000    658.99789   -31.177161   -31.688254   -31.688254   0.51109298 
  211000    631.26452   -30.908852   -31.398437   -31.398437   0.48958406 
  212000    821.41716   -30.721753   -31.358812   -31.358812   0.63705901 
  213000    654.87865   -34.792256   -35.300155   -35.300155   0.50789825 
  214000    617.00896   -34.446862    -34.92539    -34.92539   0.47852801 
  215000    644.64165   -34.142855   -34.642813   -34.642813   0.49995884 
  216000     650.0984   -35.000221   -35.504412   -35.504412   0.50419088 
  217000    606.12525    -34.15743   -34.627517   -34.627517   0.47008703 
  218000     653.1037   -34.774733   -35.281255   -35.281255   0.50652167 
  219000    687.26982   -34.405649   -34.938668   -34.938668   0.53301958 
  220000    734.08406   -34.236372   -34.805699   -34.805699   0.56932687 
  221000    633.41384   -34.820038   -35.311289   -35.311289   0.49125099 
  222000    614.24785   -33.857323    -34.33371    -34.33371   0.47638659 
  223000    692.80509   -34.932104   -35.469416   -35.469416   0.53731252 
  224000    635.93349   -34.056025   -34.549231   -34.549231   0.49320513 
  225000    699.63795   -34.894577   -35.437189   -35.437189   0.54261181 
  226000    634.11698   -34.524354   -35.016151   -35.016151   0.49179632 
  227000    681.27471   -34.858753   -35.387123   -35.387123   0.52837001 
  228000    698.80007   -34.789214   -35.331176   -35.331176   0.54196199 
  229000    767.86538   -34.654998   -35.250524   -35.250524   0.59552634 
  230000    679.37342   -34.560342   -35.087237   -35.087237   0.52689544 
  231000    665.50601   -34.699542   -35.215682   -35.215682   0.51614042 
  232000    732.90846   -34.567047   -35.135463   -35.135463   0.56841512 
  233000    742.58806   -34.732879   -35.308801   -35.308801   0.57592224 
  234000    742.95561   -34.682394   -35.258601   -35.258601    0.5762073 
  235000    658.90435   -34.691614   -35.202634   -35.202634   0.51102043 
  236000    677.62697    -34.72111   -35.246651   -35.246651   0.52554096 
  237000    792.20362   -34.539643   -35.154045   -35.154045   0.61440213 
  238000    738.08025   -34.623718   -35.196144   -35.196144   0.57242616 
  239000    718.03561   -34.527535   -35.084415   -35.084415   0.55688032 
  240000    700.96251   -34.812516   -35.356155   -35.356155    0.5436391 
  241000    725.59069   -34.428293   -34.991033   -34.991033   0.56273975 
  242000    734.58365    -34.73563   -35.305344   -35.305344   0.56971433 
  243000    764.26545    -34.45302   -35.045754   -35.045754   0.59273438 
  244000    763.99397   -34.650971   -35.243495   -35.243495   0.59252383 
  245000    726.69803   -34.585842    -35.14944    -35.14944   0.56359855 
  246000    744.32632   -34.502901   -35.080172   -35.080172   0.57727037 
  247000    723.28025   -34.478006   -35.038954   -35.038954   0.56094786 
  248000    753.66551   -34.539141   -35.123654   -35.123654   0.58451348 
  249000    723.64018   -34.408104   -34.969331   -34.969331   0.56122701 
  250000     749.1412   -34.532368   -35.113373   -35.113373    0.5810046 
  251000    830.58051   -34.316306   -34.960472   -34.960472   0.64416574 
  252000    708.86488   -34.484063   -35.033831   -35.033831   0.54976786 
  253000     713.1737    -34.38265    -34.93576    -34.93576   0.55310961 
  254000    703.82791   -34.408812   -34.954673   -34.954673   0.54586139 
  255000    792.97352   -34.211247   -34.826246   -34.826246   0.61499924 
  256000    783.13872   -34.482723   -35.090095   -35.090095   0.60737175 
  257000    776.73098   -34.616176   -35.218578   -35.218578   0.60240216 
  258000    738.19969   -34.572745   -35.145264   -35.145264    0.5725188 
  259000    796.49506   -34.332361   -34.950091   -34.950091    0.6177304 
  260000    799.99414   -34.744443   -35.364887   -35.364887   0.62044415 
  261000    806.25177   -34.201652   -34.826949   -34.826949   0.62529733 
  262000    774.18717    -34.69736   -35.297789   -35.297789   0.60042927 
  263000    735.67362   -34.097418   -34.667978   -34.667978   0.57055967 
  264000    809.71354   -34.237458    -34.86544    -34.86544   0.62798214 
  265000    795.45377   -34.162732   -34.779655   -34.779655   0.61692282 
  266000    789.61474    -34.51391   -35.126304   -35.126304    0.6123943 
  267000    797.20313   -34.305965   -34.924245   -34.924245   0.61827955 
  268000    863.09836     -34.4452   -35.114585   -35.114585   0.66938531 
  269000    734.57808    -33.96046    -34.53017    -34.53017   0.56971002 
  270000    812.47527    -34.60122   -35.231344   -35.231344   0.63012403 
  271000    848.29128   -33.996747   -34.654648   -34.654648   0.65790152 
  272000    807.73726    -34.42676   -35.053209   -35.053209   0.62644941 
  273000    819.97387   -34.106122   -34.742062   -34.742062   0.63593964 
  274000    813.05763   -34.783702   -35.414278   -35.414278   0.63057568 
  275000    848.37581   -34.039876   -34.697843   -34.697843   0.65796708 
  276000    865.09782   -34.400948   -35.071884   -35.071884   0.67093601 
  277000    872.74931   -33.994791   -34.671661   -34.671661   0.67687021 
  278000    825.41689   -34.645572   -35.285734   -35.285734   0.64016104 
  279000    866.45841   -34.241462   -34.913454   -34.913454   0.67199124 
  280000    820.76128   -34.518345   -35.154895   -35.154895   0.63655033 
  281000    790.61343   -34.322196   -34.935365   -34.935365   0.61316884 
  282000    815.72453   -34.627159   -35.259803   -35.259803   0.63264403 
  283000    738.77384   -33.774377   -34.347341   -34.347341   0.57296408 
  284000    928.28261   -34.450926   -35.170866   -35.170866   0.71993967 
  285000    855.13415   -34.496825   -35.160033   -35.160033   0.66320858 
  286000    844.55647   -34.385532   -35.040537   -35.040537   0.65500495 
  287000    911.50532   -33.953382    -34.66031    -34.66031   0.70692786 
  288000    904.48596   -34.562178   -35.263662   -35.263662   0.70148391 
  289000    849.08848   -34.317219   -34.975739   -34.975739    0.6585198 
  290000    857.49209    -33.93674   -34.601777   -34.601777   0.66503731 
  291000    933.83081   -34.565789   -35.290031   -35.290031   0.72424264 
  292000    808.42572   -34.002709   -34.629693   -34.629693   0.62698336 
  293000    887.61333   -34.457615   -35.146013   -35.146013   0.68839816 
  294000    873.60924   -34.491952   -35.169489   -35.169489   0.67753714 
  295000    828.36802   -34.021542   -34.663992   -34.663992   0.64244982 
  296000    859.91957   -33.783435   -34.450355   -34.450355   0.66691997 
  297000    895.56526   -34.342777   -35.037342   -35.037342   0.69456537 
  298000    852.82599   -33.761576   -34.422994   -34.422994   0.66141847 
  299000    901.90663   -34.470456    -35.16994    -35.16994   0.69948349 
  300000    941.54575   -33.824106   -34.554332   -34.554332   0.73022604 
  301000     870.5488   -34.570347    -35.24551    -35.24551   0.67516358 
  302000    896.40173   -33.834126    -34.52934    -34.52934    0.6952141 
  303000    899.98769   -34.600502   -35.298497   -35.298497   0.69799523 
  304000    951.07456   -33.981512   -34.719128   -34.719128   0.73761621 
  305000    882.62983    -34.51182   -35.196353   -35.196353   0.68453316 
  306000    892.12768   -33.224436   -33.916335   -33.916335   0.69189932 
  307000    920.82594   -34.571809   -35.285966   -35.285966   0.71415657 
  308000    888.82624   -33.946495   -34.635834   -34.635834   0.68933885 
  309000    946.11868   -34.435521   -35.169294   -35.169294   0.73377263 
  310000    963.79004    -33.81087   -34.558347   -34.558347   0.74747784 
  311000    922.83195   -34.255388     -34.9711     -34.9711   0.71571235 
  312000    907.89697   -34.138767   -34.842896   -34.842896   0.70412937 
  313000    927.27674   -34.245906   -34.965065   -34.965065   0.71915956 
  314000    918.27873   -34.214249    -34.92643    -34.92643   0.71218105 
  315000    952.97641   -34.263693   -35.002784   -35.002784   0.73909122 
  316000    1045.3386   -34.321712   -35.132436   -35.132436   0.81072373 
  317000    969.34016   -33.681453   -34.433236   -34.433236    0.7517823 
  318000    961.24411   -34.327078   -35.072582   -35.072582   0.74550332 
  319000    983.06825   -33.981006   -34.743435   -34.743435   0.76242927 
  320000    983.97995    -34.09637   -34.859506   -34.859506   0.76313635 
  321000    851.88816   -34.008848   -34.669539   -34.669539   0.66069113 
  322000     1063.072   -34.020894   -34.845371   -34.845371   0.82447705 
  323000     900.4805    -34.23029   -34.928667   -34.928667   0.69837744 
  324000    995.63512   -33.404187   -34.176363   -34.176363   0.77217564 
  325000    1013.0626   -34.312122   -35.097814   -35.097814    0.7856917 
  326000    953.76597   -33.622319   -34.362022   -34.362022   0.73970357 
  327000    992.13133   -34.184287   -34.953746   -34.953746   0.76945824 
  328000    1064.1136   -33.709105    -34.53439    -34.53439   0.82528483 
  329000    1058.7162   -34.262948   -35.084047   -35.084047   0.82109889 
  330000    911.51154   -33.925659   -34.632592   -34.632592   0.70693269 
  331000    1004.7014   -34.172172   -34.951379   -34.951379   0.77920705 
  332000    976.30249   -34.433559   -35.190742   -35.190742   0.75718201 
  333000    918.34717   -34.007219   -34.719453   -34.719453   0.71223413 
  334000    934.26582   -33.893066   -34.617646   -34.617646   0.72458001 
  335000    891.99938   -33.849746   -34.541545   -34.541545   0.69179981 
  336000    1017.5724   -34.331425   -35.120614   -35.120614   0.78918932 
  337000    966.51459   -34.207384   -34.956975   -34.956975    0.7495909 
  338000    1129.1979   -33.668101   -34.543863   -34.543863   0.87576172 
  339000    983.90474   -34.131409   -34.894487   -34.894487   0.76307802 
  340000    1157.3824   -33.775514   -34.673134   -34.673134    0.8976205 
  341000    1004.7474   -34.509747    -35.28899    -35.28899   0.77924278 
  342000    1023.2669    -33.95114   -34.744746   -34.744746    0.7936058 
  343000    1061.0331   -34.098281   -34.921177   -34.921177   0.82289575 
  344000    985.76799   -33.724193   -34.488716   -34.488716   0.76452308 
  345000    1066.3302   -34.458731   -35.285735   -35.285735   0.82700397 
  346000    994.20432   -33.854387   -34.625453   -34.625453   0.77106597 
  347000    1086.8743   -34.400757   -35.243694   -35.243694   0.84293715 
  348000    1112.4805   -33.891469   -34.754265   -34.754265   0.86279635 
  349000    1044.6271   -33.995805   -34.805976   -34.805976   0.81017187 
  350000    1037.2047   -34.197321   -35.001736   -35.001736   0.80441534 
  351000    1046.3246    -33.87547   -34.686958   -34.686958   0.81148839 
  352000    1085.5791   -34.364488   -35.206421   -35.206421   0.84193267 
  353000    1070.5123   -33.975795   -34.806042   -34.806042   0.83024744 
  354000     1055.581   -34.245191   -35.063858   -35.063858   0.81866733 
  355000    1085.3529   -33.907592    -34.74935    -34.74935   0.84175724 
  356000    1091.2609    -34.07698   -34.923319   -34.923319   0.84633924 
  357000    1039.7887   -34.298298   -35.104717   -35.104717   0.80641942 
  358000     1073.957   -33.697113   -34.530032   -34.530032   0.83291905 
  359000    1049.6406   -34.263959   -35.078019   -35.078019   0.81406019 
  360000    1084.2084   -33.390584   -34.231453   -34.231453    0.8408696 
  361000    1094.6927   -33.997184   -34.846185   -34.846185   0.84900079 
  362000    1046.3026    -34.23892   -35.050391   -35.050391   0.81147137 
  363000    1143.8118   -33.468977   -34.356073   -34.356073   0.88709567 
  364000    1072.0556   -34.406681   -35.238125   -35.238125   0.83144435 
  365000    1057.4574   -33.487273   -34.307396   -34.307396   0.82012261 
  366000    1157.1414   -34.315584   -35.213018   -35.213018    0.8974336 
  367000    1042.6884   -33.424354   -34.233022   -34.233022   0.80866836 
  368000    1068.1498   -34.060616   -34.889031   -34.889031   0.82841517 
  369000    1073.2729   -33.647519   -34.479908   -34.479908    0.8323885 
  370000    1131.5227    -33.75445   -34.632014   -34.632014   0.87756475 
  371000    1097.9582   -34.012007   -34.863541   -34.863541   0.85153345 
  372000     1128.508   -33.748955   -34.624181   -34.624181   0.87522667 
  373000    1176.6227    -34.03983   -34.952372   -34.952372   0.91254249 
  374000    1272.8239    -33.67284   -34.659993   -34.659993   0.98715241 
  375000    1111.6091   -34.361185   -35.223306   -35.223306   0.86212051 
  376000     1115.301    -33.48032   -34.345304   -34.345304   0.86498382 
  377000    1087.5393   -34.298654   -35.142107   -35.142107   0.84345291 
  378000    1140.8713   -33.417251   -34.302066   -34.302066   0.88481513 
  379000    1107.8239    -34.04119   -34.900375   -34.900375   0.85918484 
  380000    1164.0722   -33.709845   -34.612654   -34.612654   0.90280887 
  381000    1245.0389    -33.07129   -34.036894   -34.036894   0.96560344 
  382000    1200.0864   -34.244952   -35.175692   -35.175692   0.93074002 
  383000    1053.0305   -32.996849   -33.813538   -33.813538   0.81668923 
  384000    1143.4395   -33.546554   -34.433361   -34.433361    0.8868069 
  385000     1207.865   -34.324164   -35.260937   -35.260937   0.93677281 
  386000    1300.6384   -32.607795    -33.61652    -33.61652    1.0087243 
  387000    1161.1644   -34.678128   -35.578682   -35.578682   0.90055366 
  388000    1240.1993   -33.353821   -34.315671   -34.315671   0.96185006 
  389000    1158.8277   -34.234664   -35.133406   -35.133406   0.89874141 
  390000    1191.0271   -33.283119   -34.206833   -34.206833   0.92371404 
  391000    1178.9378   -34.164237   -35.078575   -35.078575   0.91433806 
  392000    1177.9209   -33.945135   -34.858685   -34.858685   0.91354934 
  393000    1194.2602   -33.438444   -34.364665   -34.364665   0.92622146 
  394000    1163.4868   -34.155413   -35.057768   -35.057768   0.90235486 
  395000    1208.0176   -33.713007   -34.649898   -34.649898   0.93689117 
  396000    1196.9857   -34.175293   -35.103628   -35.103628   0.92833525 
  397000    1229.7418   -33.356111    -34.30985    -34.30985   0.95373962 
  398000    1139.3326   -33.851415   -34.735037   -34.735037    0.8836218 
  399000    1285.2929   -33.502762   -34.499585   -34.499585   0.99682287 
  400000    1153.4242   -34.191409   -35.085959   -35.085959   0.89455064 
  401000    1120.7721   -33.139024   -34.008251   -34.008251   0.86922695 
  402000     1227.363    -34.08809   -35.039985   -35.039985   0.95189473 
  403000    1210.9029   -33.208186   -34.147315   -34.147315   0.93912891 
  404000    1151.9589    -33.96023   -34.853645   -34.853645   0.89341424 
  405000    1113.6473   -33.266013   -34.129714   -34.129714   0.86370127 
  406000     1231.521   -34.178209   -35.133328   -35.133328   0.95511951 
  407000    1254.7387   -33.622988   -34.596114   -34.596114   0.97312621 
  408000    1293.6268    -33.57493   -34.578217   -34.578217    1.0032864 
  409000    1262.8339   -34.077368   -35.056773   -35.056773   0.97940458 
  410000    1288.4928   -32.493944   -33.493248   -33.493248    0.9993046 
  411000    1274.9733   -34.116713   -35.105532   -35.105532   0.98881941 
  412000    1198.3796   -33.257614    -34.18703    -34.18703   0.92941634 
  413000    1226.9927    -34.01756   -34.969168   -34.969168   0.95160749 
  414000    1216.6741   -33.252516   -34.196121   -34.196121   0.94360485 
  415000    1252.8886   -33.516345   -34.488036   -34.488036    0.9716914 
  416000    1199.2515   -34.101973   -35.032066   -35.032066   0.93009257 
  417000    1333.5395    -32.82914   -33.863381   -33.863381     1.034241 
  418000    1231.4818    -33.85465   -34.809739   -34.809739   0.95508911 
  419000    1184.7983   -33.414374   -34.333257   -34.333257    0.9188832 
  420000    1249.4724   -32.982651   -33.951693   -33.951693   0.96904187 
  421000    1245.9676   -33.994752   -34.961076   -34.961076   0.96632368 
  422000    1288.5188   -33.068628   -34.067953   -34.067953   0.99932476 
  423000    1253.9329   -34.071552   -35.044054   -35.044054   0.97250131 
  424000    1219.7604   -33.385975   -34.331974   -34.331974   0.94599843 
  425000    1208.1644   -33.320315    -34.25732    -34.25732   0.93700505 
  426000    1325.4558   -34.148537   -35.176509   -35.176509    1.0279716 
  427000      1327.86   -33.025832   -34.055668   -34.055668    1.0298362 
  428000    1289.1165   -34.029585   -35.029373   -35.029373   0.99978829 
  429000    1209.0108   -33.430531   -34.368192   -34.368192   0.93766144 
  430000    1296.1986   -33.670817   -34.676098   -34.676098    1.0052809 
  431000    1372.0077   -33.921225     -34.9853     -34.9853    1.0640755 
  432000    1295.5965   -33.335037   -34.339851   -34.339851    1.0048139 
  433000    1313.2757   -34.053213   -35.071738   -35.071738    1.0185253 
  434000    1286.9238   -33.066899   -34.064987   -34.064987   0.99808774 
  435000    1305.7519   -34.167321   -35.180012   -35.180012    1.0126901 
  436000    1310.9777    -33.52312   -34.539863   -34.539863     1.016743 
  437000     1382.962   -33.225598   -34.298169   -34.298169    1.0725712 
  438000    1294.6459   -34.106247   -35.110324   -35.110324    1.0040767 
  439000    1297.3501   -32.732734   -33.738908   -33.738908     1.006174 
  440000    1315.7581   -34.069605   -35.090055   -35.090055    1.0204505 
  441000    1266.9862   -33.434511   -34.417136   -34.417136   0.98262495 
  442000    1231.9278   -32.660654   -33.616089   -33.616089   0.95543502 
  443000    1299.9579   -34.230936   -35.239133   -35.239133    1.0081965 
  444000    1341.8548   -32.720641   -33.761331   -33.761331    1.0406901 
  445000    1347.1048   -32.791357   -33.836118   -33.836118    1.0447618 
  446000    1332.2193   -34.128123    -35.16134    -35.16134    1.0332171 
  447000    1213.9008   -32.847681   -33.789135   -33.789135   0.94145395 
  448000    1357.7823   -33.191672   -34.244714   -34.244714    1.0530428 
  449000    1342.9585   -34.043408   -35.084954   -35.084954    1.0415461 
  450000    1386.4042   -32.434106   -33.509347   -33.509347    1.0752408 
  451000    1426.5929   -33.599558   -34.705968   -34.705968    1.1064096 
  452000     1308.925   -33.590056   -34.605207   -34.605207     1.015151 
  453000    1497.1651   -32.694556   -33.855699   -33.855699    1.1611427 
  454000    1392.3966   -34.069395   -35.149284   -35.149284    1.0798883 
  455000    1346.4669   -33.355443    -34.39971    -34.39971     1.044267 
  456000    1377.4213    -33.97282   -35.041094   -35.041094    1.0682741 
  457000    1369.4573   -33.730356   -34.792453   -34.792453    1.0620975 
  458000    1357.6328   -33.420208   -34.473135   -34.473135    1.0529268 
  459000    1384.7931     -34.0244   -35.098391   -35.098391    1.0739914 
  460000    1391.3844   -33.223032   -34.302135   -34.302135    1.0791033 
  461000    1422.9655   -33.618709   -34.722305   -34.722305    1.1035964 
  462000    1338.0187   -33.582732   -34.620447   -34.620447     1.037715 
  463000    1274.1616   -33.176556   -34.164745   -34.164745   0.98818985 
  464000    1442.6282   -33.709068   -34.827913   -34.827913     1.118846 
  465000     1423.488    -33.65727   -34.761272   -34.761272    1.1040016 
  466000    1399.3088   -33.781355   -34.866604   -34.866604    1.0852492 
  467000    1402.0745    -33.07928   -34.166674   -34.166674    1.0873941 
  468000    1460.4729   -33.282338   -34.415024   -34.415024    1.1326856 
  469000    1410.8994   -33.576191   -34.670429   -34.670429    1.0942384 
  470000    1313.6131   -33.376626   -34.395413   -34.395413    1.0187869 
  471000    1507.5827   -33.587918    -34.75714    -34.75714    1.1692221 
  472000    1468.8325   -33.552573   -34.691742   -34.691742     1.139169 
  473000     1371.935   -33.499918   -34.563937   -34.563937    1.0640191 
  474000    1451.3822   -33.313239   -34.438874   -34.438874    1.1256353 
  475000    1338.6895   -33.838807   -34.877042   -34.877042    1.0382352 
  476000    1383.7413    -33.04637   -34.119546   -34.119546    1.0731756 
  477000    1365.9506   -33.857077   -34.916455   -34.916455    1.0593778 
  478000    1483.5774   -33.150579   -34.301184   -34.301184    1.1506046 
  479000      1461.59    -33.46226   -34.595812   -34.595812     1.133552 
  480000    1380.3404   -33.386235   -34.456773   -34.456773     1.070538 
  481000    1475.5076   -33.062869   -34.207215   -34.207215    1.1443459 
  482000    1402.7443   -33.834843   -34.922756   -34.922756    1.0879136 
  483000    1412.5029   -32.820846   -33.916328   -33.916328     1.095482 
  484000     1439.001    -33.52169   -34.637723   -34.637723    1.1160329 
  485000    1408.2966   -33.160679   -34.252899   -34.252899    1.0922197 
  486000    1424.0515   -33.130571    -34.23501    -34.23501    1.1044386 
  487000     1448.353   -34.009105   -35.132391   -35.132391    1.1232859 
  488000    1504.2821    -32.61455   -33.781212   -33.781212    1.1666623 
  489000    1461.5485   -33.835567   -34.969087   -34.969087    1.1335198 
  490000    1394.8309   -32.945368   -34.027144   -34.027144    1.0817763 
  491000    1478.3976    -33.57932   -34.725907   -34.725907    1.1465873 
  492000    1406.2694    -33.38722   -34.477868   -34.477868    1.0906475 
  493000    1568.7018   -31.370426    -32.58705    -32.58705    1.2166238 
  494000    1522.7774   -34.000376   -35.181383   -35.181383    1.1810065 
  495000     1601.288    -32.61489   -33.856786   -33.856786    1.2418963 
  496000    1526.8339   -33.162675   -34.346828   -34.346828    1.1841527 
  497000    1548.0104   -33.391349   -34.591925   -34.591925    1.2005763 
  498000    1395.4046   -32.694329    -33.77655    -33.77655    1.0822212 
  499000    1459.7651   -33.928361   -35.060498   -35.060498    1.1321367 
  500000    1504.8523   -32.700136   -33.867241   -33.867241    1.1671046 
  501000    1538.9517   -32.988867   -34.182418   -34.182418    1.1935508 
  502000    1509.2015   -34.056849   -35.227327   -35.227327    1.1704776 
  503000    1413.0245   -32.428321   -33.524207   -33.524207    1.0958865 
  504000    1471.5821    -33.02376   -34.165061   -34.165061    1.1413015 
  505000    1514.4708   -33.806386    -34.98095    -34.98095    1.1745643 
  506000    1515.7485   -32.661577   -33.837132   -33.837132    1.1755552 
  507000    1574.0843   -33.948636   -35.169434   -35.169434    1.2207982 
  508000    1455.3494   -33.105379   -34.234091   -34.234091    1.1287121 
  509000    1609.2113   -32.492868   -33.740909   -33.740909    1.2480413 
  510000    1533.6714   -34.027523   -35.216979   -35.216979    1.1894556 
  511000    1583.6328   -32.004113   -33.232316   -33.232316    1.2282037 
  512000    1591.6659   -33.175333   -34.409767   -34.409767    1.2344338 
  513000    1461.3545   -33.744047   -34.877416   -34.877416    1.1333693 
  514000     1474.864   -32.419508   -33.563355   -33.563355    1.1438468 
  515000    1552.9826   -33.749038    -34.95347    -34.95347    1.2044325 
  516000    1522.8733   -33.122264   -34.303345   -34.303345    1.1810809 
  517000    1647.2035   -32.760698   -34.038204   -34.038204    1.2775066 
  518000    1563.8574   -33.666231   -34.879098   -34.879098    1.2128666 
  519000     1471.488   -32.997816   -34.139044   -34.139044    1.1412285 
  520000     1426.637   -32.980077   -34.086521   -34.086521    1.1064439 
  521000    1559.4458   -33.401878   -34.611323   -34.611323    1.2094452 
  522000    1523.9835   -33.014982   -34.196924   -34.196924     1.181942 
  523000    1620.8967   -33.842833   -35.099937   -35.099937    1.2571041 
  524000     1542.958   -32.691087   -33.887745   -33.887745    1.1966578 
  525000    1684.1993   -33.294625   -34.600824   -34.600824    1.3061991 
  526000    1547.4667   -33.270009   -34.470164   -34.470164    1.2001546 
  527000    1592.4452   -33.274626   -34.509665   -34.509665    1.2350382 
  528000    1697.4549   -33.402002   -34.718481   -34.718481    1.3164796 
  529000    1504.8972   -32.956398   -34.123537   -34.123537    1.1671394 
  530000    1554.8199   -33.112806   -34.318663   -34.318663    1.2058575 
  531000    1535.2579   -33.035553   -34.226238   -34.226238    1.1906859 
  532000    1648.7192   -33.161074   -34.439756   -34.439756    1.2786821 
  533000    1550.5885   -33.220405   -34.422981   -34.422981    1.2025758 
  534000    1663.6963   -32.968202     -34.2585     -34.2585    1.2902978 
  535000    1641.6252   -33.750248   -35.023428   -35.023428    1.2731803 
  536000    1555.9677   -32.289732    -33.49648    -33.49648    1.2067476 
  537000    1715.4205   -33.683892   -35.014305   -35.014305     1.330413 
  538000    1401.5173   -32.252971   -33.339933   -33.339933    1.0869619 
  539000    1641.2362   -33.496286   -34.769164   -34.769164    1.2728785 
  540000    1546.1145   -33.000658   -34.199764   -34.199764    1.1991059 
  541000     1700.289   -32.562521   -33.881198   -33.881198    1.3186776 
  542000    1593.9526   -33.870421   -35.106628   -35.106628    1.2362073 
  543000    1742.9255   -32.028222   -33.379967   -33.379967    1.3517448 
  544000    1589.5918   -33.727444   -34.960269   -34.960269    1.2328252 
  545000    1682.8201   -32.959006   -34.264136   -34.264136    1.3051294 
  546000    1608.5564   -32.487092   -33.734625   -33.734625    1.2475334 
  547000    1641.1124   -33.355056   -34.627839   -34.627839    1.2727826 
  548000    1815.2826    -31.54734   -32.955202   -32.955202    1.4078622 
  549000    1635.4086   -33.478943   -34.747302   -34.747302    1.2683589 
  550000    1599.5093   -33.330048   -34.570564   -34.570564    1.2405168 
  551000    1799.5403   -32.895575   -34.291228   -34.291228    1.3956531 
  552000    1547.7253   -33.481323   -34.681678   -34.681678    1.2003552 
  553000    1676.0686   -32.703566    -34.00346    -34.00346    1.2998932 
  554000    1625.9107   -33.542615   -34.803608   -34.803608    1.2609927 
  555000     1626.959   -32.599072   -33.860878   -33.860878    1.2618057 
  556000    1668.4803   -33.159166   -34.453175   -34.453175     1.294008 
  557000    1617.3898   -33.522796    -34.77718    -34.77718    1.2543843 
  558000    1738.7169   -32.889672   -34.238153   -34.238153    1.3484808 
  559000    1698.6014   -33.614684   -34.932052   -34.932052    1.3173688 
  560000    1625.5237    -33.21586   -34.476553   -34.476553    1.2606926 
  561000     1684.079   -33.265265   -34.571371   -34.571371    1.3061058 
  562000    1665.0426   -33.299308   -34.590649   -34.590649    1.2913419 
  563000    1620.0025    -33.22836   -34.484771   -34.484771    1.2564105 
  564000    1747.4113   -33.651693   -35.006917   -35.006917    1.3552238 
  565000    1661.5362   -33.078086   -34.366708   -34.366708    1.2886225 
  566000    1755.5828   -33.426136   -34.787698   -34.787698    1.3615613 
  567000    1689.8513   -33.289995   -34.600577   -34.600577    1.3105826 
  568000     1644.126   -33.385407   -34.660527   -34.660527    1.2751198 
  569000    1667.8349    -33.42499   -34.718497   -34.718497    1.2935075 
  570000    1726.2587   -33.072225   -34.411044   -34.411044    1.3388187 
  571000      1661.15   -33.602302   -34.890625   -34.890625    1.2883229 
  572000    1699.3354   -32.751593   -34.069531   -34.069531     1.317938 
  573000    1739.4868   -33.715952    -35.06503    -35.06503    1.3490779 
  574000     1678.034   -32.950115   -34.251532   -34.251532    1.3014175 
  575000    1705.0129   -33.201376   -34.523718   -34.523718    1.3223413 
  576000    1727.8353   -33.399764   -34.739805   -34.739805    1.3400414 
  577000    1686.9517   -32.535845   -33.844178   -33.844178    1.3083337 
  578000     1760.405   -33.307871   -34.673173   -34.673173    1.3653012 
  579000     1796.568   -33.148437   -34.541785   -34.541785    1.3933478 
  580000    1718.1017   -32.769774   -34.102266   -34.102266    1.3324925 
  581000    1732.1329   -33.549936   -34.893311   -34.893311    1.3433745 
  582000    1723.6919   -32.907315   -34.244143   -34.244143     1.336828 
  583000     1742.008   -33.396788   -34.747821   -34.747821    1.3510333 
  584000    1701.1957   -32.818146   -34.137527   -34.137527    1.3193808 
  585000    1739.1436   -33.209541   -34.558352   -34.558352    1.3488117 
  586000    1766.6564    -33.27577    -34.64592    -34.64592    1.3701496 
  587000     1832.306   -33.009534   -34.430599   -34.430599    1.4210648 
  588000    1716.5652   -33.597651   -34.928952   -34.928952    1.3313008 
  589000    1809.4084   -32.724373    -34.12768    -34.12768    1.4033064 
  590000    1712.8802   -33.058035   -34.386478   -34.386478    1.3284429 
  591000     1743.724   -32.788257   -34.140621   -34.140621    1.3523641 
  592000    1738.4455    -32.63868   -33.986951   -33.986951    1.3482703 
  593000    1809.8971   -33.388597   -34.792282   -34.792282    1.4036853 
  594000    1699.8722   -32.846766    -34.16512    -34.16512    1.3183544 
  595000    1776.1009   -33.051467   -34.428941   -34.428941    1.3774743 
  596000    1796.5619   -33.161985   -34.555328   -34.555328    1.3933431 
  597000    1780.2041   -33.531624   -34.912281   -34.912281    1.3806567 
  598000    1793.0663     -33.0546   -34.445232   -34.445232    1.3906321 
  599000    1765.8364    -33.52753   -34.897043   -34.897043    1.3695136 
  600000    1762.5379   -33.045648   -34.412603   -34.412603    1.3669554 
  601000    1804.4394   -32.976079   -34.375531   -34.375531    1.3994526 
  602000    1828.3829   -33.449481   -34.867504   -34.867504    1.4180222 
  603000    1860.0522   -32.760169   -34.202753   -34.202753    1.4425837 
  604000    1801.3591   -33.464524   -34.861588   -34.861588    1.3970636 
  605000    1795.6068   -32.418909   -33.811511   -33.811511    1.3926024 
  606000     1813.117   -33.363293   -34.769476   -34.769476    1.4061826 
  607000     1862.576   -33.129227   -34.573768   -34.573768    1.4445411 
  608000    1666.9911   -32.558145   -33.850998   -33.850998    1.2928531 
  609000    1797.2537   -33.572008   -34.965888   -34.965888    1.3938796 
  610000    1883.8127    -31.93101   -33.392021   -33.392021    1.4610114 
  611000    1800.6956   -33.214352   -34.610901   -34.610901    1.3965491 
  612000    1766.7552   -32.657996   -34.028222   -34.028222    1.3702262 
  613000     1864.363   -32.677165   -34.123092   -34.123092     1.445927 
  614000    1786.9511   -33.270368   -34.656258   -34.656258    1.3858894 
  615000    1917.5975   -32.475205   -33.962419   -33.962419    1.4872136 
  616000    1822.0988    -33.11779   -34.530939   -34.530939    1.4131485 
  617000    1888.3721   -33.152836   -34.617383   -34.617383    1.4645475 
  618000     1804.816   -33.035309   -34.435054   -34.435054    1.3997447 
  619000    1814.9152   -33.273126   -34.680704   -34.680704    1.4075772 
  620000    1845.4379   -32.616148   -34.047398   -34.047398    1.4312494 
  621000    1892.0626   -33.229856   -34.697266   -34.697266    1.4674097 
  622000    1818.8764   -33.300109   -34.710758   -34.710758    1.4106493 
  623000    1920.3664   -33.281911   -34.771273   -34.771273    1.4893611 
  624000    1881.6031   -32.784956   -34.244254   -34.244254    1.4592978 
  625000    1842.8818   -33.110501   -34.539768   -34.539768     1.429267 
  626000    1853.9213   -33.249236   -34.687065   -34.687065    1.4378288 
  627000    1935.5622   -32.432025   -33.933171   -33.933171    1.5011463 
  628000    1952.9105   -33.453209    -34.96781    -34.96781     1.514601 
  629000    1853.4287     -33.1076   -34.545046   -34.545046    1.4374468 
  630000    1822.6164   -32.536024   -33.949574   -33.949574    1.4135499 
  631000    1990.0757   -32.300859   -33.844284   -33.844284    1.5434248 
  632000    2001.3717   -32.982542   -34.534727   -34.534727    1.5521856 
  633000    1858.4842   -32.326353   -33.767721   -33.767721    1.4413676 
  634000    1996.3003   -33.021025   -34.569277   -34.569277    1.5482524 
  635000    1852.3047   -32.957202   -34.393777   -34.393777     1.436575 
  636000    1982.3002   -32.077044   -33.614438   -33.614438    1.5373944 
  637000    1934.7226   -33.521488   -35.021983   -35.021983    1.5004951 
  638000    2132.6683   -32.034409   -33.688423   -33.688423    1.6540141 
  639000    1860.6301   -33.370892   -34.813924   -34.813924    1.4430319 
  640000    1839.7237    -32.84584   -34.272657   -34.272657    1.4268177 
  641000    1861.3188   -32.526163   -33.969729   -33.969729     1.443566 
  642000     1961.156   -33.363223   -34.884219   -34.884219    1.5209958 
  643000    2092.6071   -32.165986    -33.78893    -33.78893    1.6229442 
  644000    1960.5992   -33.308331   -34.828895   -34.828895     1.520564 
  645000      1837.18   -32.578351   -34.003196   -34.003196    1.4248449 
  646000    2001.2115   -32.038658   -33.590719   -33.590719    1.5520613 
  647000    1915.9378   -33.429796   -34.915723   -34.915723    1.4859264 
  648000    1921.6638   -31.626277   -33.116644   -33.116644    1.4903672 
  649000     1934.913   -33.097848   -34.598491   -34.598491    1.5006428 
  650000    1958.8044   -32.792984   -34.312156   -34.312156     1.519172 
  651000    1978.5857   -31.488717   -33.023231   -33.023231    1.5345137 
  652000    1868.0385   -33.731956   -35.180734   -35.180734    1.4487775 
  653000    1971.8719   -30.989661   -32.518967   -32.518967    1.5293067 
  654000    1866.3518   -33.185651    -34.63312    -34.63312    1.4474694 
  655000    1799.8814   -32.157523    -33.55344    -33.55344    1.3959176 
  656000    2002.7646   -31.981822   -33.535088   -33.535088    1.5532658 
  657000    1929.8463    -33.37358   -34.870293   -34.870293    1.4967133 
  658000    2032.9321    -31.03241   -32.609073   -32.609073    1.5766626 
  659000    1966.5976   -32.884936   -34.410152   -34.410152    1.5252161 
  660000    1979.4802   -32.645813   -34.181021   -34.181021    1.5352074 
  661000    2169.0178   -31.167006   -32.849211   -32.849211    1.6822053 
  662000    1988.9525   -33.453087   -34.995641   -34.995641    1.5425537 
  663000    1864.9166   -30.972569   -32.418926   -32.418926    1.4463563 
  664000    2016.7351   -33.132391   -34.696492   -34.696492    1.5641008 
  665000    2120.1471   -32.278701   -33.923004   -33.923004    1.6443031 
  666000    2019.0548   -33.042743   -34.608643   -34.608643    1.5658999 
  667000    2083.7405   -32.824507   -34.440575   -34.440575    1.6160676 
  668000    1904.9672   -32.015504   -33.492922   -33.492922    1.4774181 
  669000    1893.4315   -33.182006   -34.650478   -34.650478    1.4684713 
  670000    2047.1385   -32.070474   -33.658155   -33.658155    1.5876805 
  671000    1959.1537   -33.401496   -34.920939   -34.920939    1.5194429 
  672000    1942.5216   -29.879568   -31.386112   -31.386112    1.5065438 
  673000    2055.0312   -33.218417   -34.812219   -34.812219    1.5938018 
  674000    2148.7848   -31.911172   -33.577685   -33.577685    1.6665134 
  675000     2075.665   -31.283888   -32.893692   -32.893692    1.6098046 
  676000    1968.8651   -32.994503   -34.521477   -34.521477    1.5269747 
  677000    2032.9401   -32.173079   -33.749748   -33.749748    1.5766688 
  678000    2001.3743   -33.063193   -34.615381   -34.615381    1.5521876 
  679000    2014.7518   -32.388169   -33.950732   -33.950732    1.5625626 
  680000    2205.7545   -32.513353    -34.22405    -34.22405    1.7106969 
  681000    2110.9309   -32.423228   -34.060384   -34.060384    1.6371554 
  682000    2003.9073   -31.606083   -33.160235   -33.160235    1.5541521 
  683000    2038.8718   -33.546667   -35.127936   -35.127936    1.5812692 
  684000    2078.6935   -31.832145   -33.444298   -33.444298    1.6121533 
  685000    2144.5107   -32.268801   -33.931999   -33.931999    1.6631986 
  686000     1981.271   -33.066448   -34.603044   -34.603044    1.5365963 
  687000    1964.9672   -30.809958   -32.333909   -32.333909    1.5239517 
  688000    2139.3976   -33.138864   -34.798097   -34.798097     1.659233 
  689000    1878.3246   -32.026804   -33.483559   -33.483559     1.456755 
  690000    2117.2159   -31.391346   -33.033376   -33.033376    1.6420298 
  691000    2057.3806   -33.052354   -34.647978   -34.647978    1.5956239 
  692000    1973.0671   -31.912921   -33.443154   -33.443154    1.5302337 
  693000    2141.7776   -32.516123   -34.177202   -34.177202    1.6610789 
  694000    1974.6988   -32.474263   -34.005762   -34.005762    1.5314991 
  695000    2182.0566    -32.34799   -34.040308   -34.040308    1.6923177 
  696000    2133.9994   -33.026039   -34.681085   -34.681085    1.6550464 
  697000    1983.0447   -31.379944   -32.917916   -32.917916    1.5379719 
  698000    2111.3192   -33.158044     -34.7955     -34.7955    1.6374566 
  699000    2081.2745   -32.155204   -33.769359   -33.769359     1.614155 
  700000    2202.3375   -31.405144   -33.113191   -33.113191    1.7080468 
  701000    2022.9922   -33.126977   -34.695931   -34.695931    1.5689536 
  702000    2206.2688   -31.163299   -32.874394   -32.874394    1.7110957 
  703000      2165.31   -32.978865   -34.658195   -34.658195    1.6793297 
  704000    2236.9515   -32.418473   -34.153365   -34.153365     1.734892 
  705000    2020.7564    -31.24388     -32.8111     -32.8111    1.5672196 
  706000    2167.4824   -33.521255    -35.20227    -35.20227    1.6810146 
  707000    2147.1031   -31.376731    -33.04194    -33.04194    1.6652091 
  708000    1986.3333   -32.163982   -33.704505   -33.704505    1.5405224 
  709000    2170.6671   -33.220807   -34.904291   -34.904291    1.6834844 
  710000    1978.0675   -31.390082   -32.924194   -32.924194    1.5341118 
  711000    2143.2607   -33.263645   -34.925874   -34.925874    1.6622291 
  712000     2163.681   -31.516161   -33.194228   -33.194228    1.6780664 
  713000    2145.4284   -32.053461   -33.717371   -33.717371    1.6639104 
  714000    2084.3736   -33.124104   -34.740662   -34.740662    1.6165586 
  715000    2090.9419   -31.663691   -33.285344   -33.285344    1.6216528 
  716000    2202.8218   -32.619375   -34.327797   -34.327797    1.7084224 
  717000    2183.2153   -32.151332   -33.844548   -33.844548    1.6932164 
  718000    2344.7271   -30.934833   -32.753312   -32.753312    1.8184786 
  719000    2172.1963   -33.485873   -35.170543   -35.170543    1.6846704 
  720000    2133.2558   -31.214767   -32.869236   -32.869236    1.6544697 
  721000     2142.651   -31.939036   -33.600793   -33.600793    1.6617563 
  722000    2186.5337   -33.079081   -34.774871   -34.774871      1.69579 
  723000    2182.4187   -31.317577   -33.010176   -33.010176    1.6925986 
  724000    2178.0812    -33.07381   -34.763045   -34.763045    1.6892346 
  725000    2108.3068   -31.533259   -33.168379   -33.168379    1.6351203 
  726000    2167.4561   -31.460766    -33.14176    -33.14176    1.6809941 
  727000    2126.4363   -33.115567   -34.764748   -34.764748    1.6491808 
  728000     2121.121   -31.204075   -32.849133   -32.849133    1.6450584 
  729000    2237.1077   -32.698345   -34.433358   -34.433358    1.7350132 
  730000     2128.252   -32.390623   -34.041212   -34.041212    1.6505889 
  731000    2204.2837    -31.74013   -33.449687   -33.449687    1.7095562 
  732000     2245.904   -32.723744    -34.46558    -34.46558    1.7418352 
  733000    2321.6348   -32.599088   -34.399657   -34.399657    1.8005691 
  734000    2140.5906   -32.595417   -34.255575   -34.255575    1.6601583 
  735000     2220.108   -31.684563   -33.406392   -33.406392    1.7218289 
  736000    2165.1912    -32.33423   -34.013467   -34.013467    1.6792376 
  737000    2244.2416   -32.895356   -34.635902   -34.635902     1.740546 
  738000    2098.5508   -31.940956    -33.56851    -33.56851    1.6275539 
  739000    2233.9178   -33.059397   -34.791936   -34.791936    1.7325392 
  740000    2308.7898   -31.060369   -32.850976   -32.850976     1.790607 
  741000    2301.9012   -32.000442   -33.785707   -33.785707    1.7852645 
  742000    2123.0872   -32.533006   -34.179589   -34.179589    1.6465833 
  743000     2158.285   -31.565004   -33.238885   -33.238885    1.6738814 
  744000    2156.3928   -32.930353   -34.602767   -34.602767    1.6724138 
  745000    1998.6097   -31.058116    -32.60816    -32.60816    1.5500435 
  746000    2238.6288   -32.683397    -34.41959    -34.41959    1.7361929 
  747000    2322.8343   -30.579754   -32.381254   -32.381254    1.8014994 
  748000    2151.0944   -33.004821   -34.673125   -34.673125    1.6683046 
  749000     2322.317   -31.616966   -33.418064   -33.418064    1.8010982 
  750000    2266.9963    -32.72868   -34.486874   -34.486874    1.7581936 
  751000     2253.289   -32.109922   -33.857484   -33.857484    1.7475628 
  752000    2292.1077    -31.76392   -33.541589   -33.541589     1.777669 
  753000    2211.2316   -32.544363   -34.259308   -34.259308    1.7149447 
  754000    2230.5534   -32.578614   -34.308544   -34.308544    1.7299299 
  755000    2281.2006   -32.797984   -34.567194   -34.567194      1.76921 
  756000    2268.2413    -32.64025   -34.399409   -34.399409    1.7591592 
  757000    2397.6615   -32.560435   -34.419967   -34.419967    1.8595324 
  758000    2260.9714   -32.748504   -34.502025   -34.502025     1.753521 
  759000    2284.9435   -32.630358   -34.402471   -34.402471    1.7721128 
  760000    2274.1257   -32.942548   -34.706271   -34.706271    1.7637229 
  761000     2236.858   -32.389364   -34.124183   -34.124183    1.7348196 
  762000     2278.949   -32.678208   -34.445672   -34.445672    1.7674636 
  763000    2334.4402   -32.163946   -33.974447   -33.974447    1.8105005 
  764000    2276.4058    -32.52354   -34.289031   -34.289031    1.7654913 
  765000    2212.4028   -32.742825   -34.458678   -34.458678     1.715853 
  766000    2388.1483   -31.754308   -33.606463   -33.606463    1.8521544 
  767000    2197.9357   -32.491155   -34.195788   -34.195788    1.7046329 
  768000    2348.1462   -32.241875   -34.063005   -34.063005    1.8211303 
  769000    2241.9646    -32.62229    -34.36107    -34.36107      1.73878 
  770000    2211.7553   -32.621423   -34.336774   -34.336774    1.7153509 
  771000    2398.2374   -31.885787   -33.745766   -33.745766    1.8599791 
  772000     2297.961   -32.649791   -34.431999   -34.431999    1.7822086 
  773000    2241.3756   -31.606379   -33.344702   -33.344702    1.7383232 
  774000    2322.7843   -32.669217   -34.470677   -34.470677    1.8014606 
  775000    2250.9961    -32.44615   -34.191935   -34.191935    1.7457845 
  776000    2333.4138   -31.960509   -33.770213   -33.770213    1.8097044 
  777000    2329.0993   -32.420236   -34.226595   -34.226595    1.8063583 
  778000     2301.602   -32.064014   -33.849046   -33.849046    1.7850324 
  779000    2352.6248   -32.039626   -33.864229   -33.864229    1.8246038 
  780000    2458.9406   -32.564711   -34.471769   -34.471769    1.9070581 
  781000    2477.1509   -31.799051   -33.720232   -33.720232    1.9211813 
  782000    2525.7385   -31.746428   -33.705292   -33.705292     1.958864 
  783000    2313.3768   -32.663553   -34.457718   -34.457718    1.7941645 
  784000     2440.414   -31.125917   -33.018607   -33.018607    1.8926896 
  785000    2163.1309   -32.702626   -34.380266   -34.380266    1.6776397 
  786000     2324.388   -30.423269   -32.225973   -32.225973    1.8027044 
  787000    2439.1056   -32.523642   -34.415316   -34.415316    1.8916749 
  788000    2232.2417   -31.898192   -33.629431   -33.629431    1.7312393 
  789000    2589.0302   -30.849715   -32.857666   -32.857666    2.0079505 
  790000    2396.3485   -33.117395   -34.975909   -34.975909    1.8585141 
  791000     2503.176   -30.632209   -32.573574   -32.573574    1.9413654 
  792000    2391.1777   -32.519567   -34.374071   -34.374071    1.8545038 
  793000    2239.2312   -32.425336   -34.161996   -34.161996    1.7366601 
  794000    2491.3758   -31.027178   -32.959391   -32.959391    1.9322136 
  795000    2423.9417   -32.128405   -34.008319   -34.008319    1.8799143 
  796000    2373.9635   -30.922869   -32.764022   -32.764022    1.8411532 
  797000    2297.8404    -33.10401   -34.886125   -34.886125    1.7821151 
  798000    2434.2887   -31.626085   -33.514024   -33.514024     1.887939 
  799000    2454.4039   -32.178654   -34.082194   -34.082194    1.9035396 
  800000    2472.2058   -31.961971   -33.879317   -33.879317    1.9173461 
  801000    2377.5168   -31.744035   -33.587944   -33.587944     1.843909 
  802000    2397.0662   -32.888452   -34.747523   -34.747523    1.8590708 
  803000    2276.8141   -30.840886   -32.606694   -32.606694    1.7658079 
  804000    2457.2047   -31.976349   -33.882061   -33.882061    1.9057118 
  805000    2459.0681   -32.811773    -34.71893    -34.71893     1.907157 
  806000    2405.1044   -30.196778   -32.062082   -32.062082    1.8653049 
  807000    2421.5131   -32.741725   -34.619756   -34.619756    1.8780308 
  808000    2430.5491   -31.208246   -33.093285   -33.093285    1.8850388 
  809000    2467.4832   -32.079019   -33.992703   -33.992703    1.9136834 
  810000      2354.53    -31.91391   -33.739991   -33.739991    1.8260813 
  811000    2519.6588   -30.396923   -32.351072   -32.351072    1.9541488 
  812000    2387.7451   -32.950404   -34.802246   -34.802246    1.8518417 
  813000    2405.5418   -31.264176    -33.12982    -33.12982    1.8656441 
  814000     2388.952   -31.610345   -33.463123   -33.463123    1.8527777 
  815000    2487.0313   -32.498404   -34.427248   -34.427248    1.9288441 
  816000    2354.2226   -30.882581   -32.708424   -32.708424     1.825843 
  817000    2617.2521   -32.251675   -34.281513   -34.281513    2.0298383 
  818000    2441.0927   -31.278312   -33.171528   -33.171528     1.893216 
  819000    2610.7959   -31.754528   -33.779359   -33.779359    2.0248312 
  820000    2250.8228   -31.513634   -33.259284   -33.259284    1.7456501 
  821000    2437.3175   -30.333267   -32.223555   -32.223555    1.8902881 
  822000     2496.527    -32.28861   -34.224819   -34.224819    1.9362087 
  823000    2545.5616   -31.058312    -33.03255    -33.03255    1.9742379 
  824000    2476.0653   -32.229085   -34.149425   -34.149425    1.9203394 
  825000    2518.7887   -32.045098   -33.998572   -33.998572    1.9534739 
  826000    2448.8139   -31.198622   -33.097827   -33.097827    1.8992043 
  827000    2453.5767   -32.505552    -34.40845    -34.40845    1.9028981 
  828000    2639.6954   -30.706974   -32.754218   -32.754218    2.0472445 
  829000    2487.3274   -31.187721   -33.116795   -33.116795    1.9290738 
  830000    2356.9367   -32.439576   -34.267524   -34.267524    1.8279479 
  831000    2683.6413   -30.319224   -32.400551   -32.400551    2.0813272 
  832000    2519.8042   -33.290299    -35.24456    -35.24456    1.9542616 
  833000    2465.5863   -31.134717   -33.046929   -33.046929    1.9122123 
  834000    2482.8896   -32.223162   -34.148794   -34.148794     1.925632 
  835000    2444.9249   -32.205581   -34.101769   -34.101769    1.8961881 
  836000    2659.6808   -30.192762   -32.255506   -32.255506    2.0627443 
  837000    2381.0312   -33.186668   -35.033302   -35.033302    1.8466347 
  838000    2469.9037   -30.244612   -32.160173   -32.160173    1.9155606 
  839000    2681.2629   -31.473612   -33.553094   -33.553094    2.0794826 
  840000    2488.5678    -32.50028   -34.430316   -34.430316    1.9300358 
  841000    2569.4788   -30.062813     -32.0556     -32.0556    1.9927872 
  842000    2559.2585   -32.936931   -34.921791   -34.921791    1.9848607 
  843000    2603.0479   -32.090391   -34.109213   -34.109213    2.0188221 
  844000    2614.7211   -31.040521   -33.068396   -33.068396    2.0278754 
  845000    2445.1334   -32.865094   -34.761444   -34.761444    1.8963498 
  846000    2826.5992   -28.980709   -31.172909   -31.172909    2.1921997 
  847000    2720.0324   -31.956627   -34.066178   -34.066178    2.1095507 
  848000    2519.3258   -32.425529    -34.37942    -34.37942    1.9538905 
  849000    2323.0913    -30.09016   -31.891859   -31.891859    1.8016987 
  850000    2380.7295    -32.96308   -34.809481   -34.809481    1.8464007 
  851000    2450.8708     -29.4923     -31.3931     -31.3931    1.9007995 
  852000    2543.1272   -31.588401   -33.560751   -33.560751    1.9723499 
  853000    2629.0285   -32.012762   -34.051733   -34.051733    2.0389716 
  854000    2758.6263   -30.304694   -32.444176   -32.444176    2.1394826 
  855000    2862.8786    -32.08159   -34.301927   -34.301927    2.2203366 
  856000    2503.2879   -32.377153   -34.318605   -34.318605    1.9414522 
  857000    2358.5277   -32.912703   -34.741885   -34.741885    1.8291818 
  858000     2440.777   -29.943586   -31.836557   -31.836557    1.8929712 
  859000    2522.0685   -32.433081   -34.389098   -34.389098    1.9560176 
  860000    2562.0788   -32.642271   -34.629319   -34.629319     1.987048 
  861000    2577.6282   -32.343081   -34.342189   -34.342189    1.9991076 
  862000       2814.1   -29.973965   -32.156471   -32.156471    2.1825059 
  863000    2605.5993   -30.887235   -32.908035   -32.908035    2.0208008 
  864000    2587.8206   -32.346747    -34.35376    -34.35376    2.0070124 
  865000    2573.5296   -32.639638   -34.635567   -34.635567    1.9959288 
  866000    2559.9645   -32.536563   -34.521971   -34.521971    1.9854083 
  867000    2570.0384   -32.228114   -34.221335   -34.221335    1.9932212 
  868000    2660.6106   -31.563946   -33.627411   -33.627411    2.0634654 
  869000    2392.1396   -32.285284   -34.140534   -34.140534    1.8552498 
  870000    2567.0838   -33.043906   -35.034836   -35.034836    1.9909298 
  871000    2699.3932   -32.179764   -34.273308   -34.273308    2.0935437 
  872000    2429.9285   -32.498571   -34.383128   -34.383128    1.8845575 
  873000    2438.0935   -32.560429   -34.451319   -34.451319    1.8908899 
  874000    2293.0908   -32.694555   -34.472986   -34.472986    1.7784315 
  875000     2829.808   -32.384816   -34.579505   -34.579505    2.1946883 
  876000    2871.6385   -32.446747   -34.673877   -34.673877    2.2271304 
  877000    2662.2626   -32.734711   -34.799458   -34.799458    2.0647467 
  878000    2470.5668    -32.87559   -34.791665   -34.791665     1.916075 
  879000    2456.9881    -32.07564   -33.981184   -33.981184    1.9055438 
  880000    2841.5202   -30.761121   -32.964893   -32.964893    2.2037719 
  881000    2613.2629     -31.7705   -33.797244   -33.797244    2.0267445 
  882000    2615.3982   -32.771804   -34.800204   -34.800204    2.0284005 
  883000    2559.3218   -32.128623   -34.113533   -34.113533    1.9849098 
  884000    2970.2341   -31.831731   -34.135329   -34.135329    2.3035973 
  885000    2639.0924   -30.591045   -32.637822   -32.637822    2.0467768 
  886000    2805.4193   -32.390017   -34.565791   -34.565791    2.1757735 
  887000    2430.5194   -32.050364   -33.935379   -33.935379    1.8850157 
  888000     2586.351   -31.821317    -33.82719    -33.82719    2.0058726 
  889000    2410.7273   -31.867546   -33.737212   -33.737212    1.8696658 
  890000    2652.9016   -31.466867   -33.524353   -33.524353    2.0574867 
  891000    2723.4938   -29.795057   -31.907292   -31.907292    2.1122352 
  892000    2706.5891   -31.966717   -34.065842   -34.065842    2.0991246 
  893000    2638.2144   -32.467763   -34.513858   -34.513858    2.0460958 
  894000     3048.775   -32.527524   -34.892034   -34.892034    2.3645106 
  895000    2747.1976   -32.399386   -34.530005   -34.530005    2.1306189 
  896000    2526.2042   -30.986887   -32.946112   -32.946112    1.9592251 
  897000    2330.6287   -32.126884   -33.934428   -33.934428    1.8075444 
  898000    2763.6863   -32.594864   -34.738271   -34.738271    2.1434069 
  899000      2630.47   -32.739394   -34.779484   -34.779484    2.0400896 
  900000    2750.1045   -32.036315   -34.169189   -34.169189    2.1328734 
  901000    2465.5713   -29.988039    -31.90024    -31.90024    1.9122006 
  902000    2471.0359   -31.075243   -32.991682   -32.991682    1.9164387 
  903000    2842.8278   -32.390214      -34.595      -34.595     2.204786 
  904000    2578.3882   -31.606917   -33.606614   -33.606614     1.999697 
  905000     2681.577   -32.402333   -34.482059   -34.482059    2.0797262 
  906000    2724.9041   -31.930203   -34.043532   -34.043532     2.113329 
  907000    2765.0638   -32.558855    -34.70333    -34.70333    2.1444753 
  908000    2566.8761   -32.283327   -34.274095   -34.274095    1.9907686 
  909000    2885.4842   -32.896591   -35.134459   -35.134459    2.2378686 
  910000    3062.0865   -30.987944   -33.362778   -33.362778    2.3748345 
  911000    2721.7252    -30.80587   -32.916734   -32.916734    2.1108635 
  912000    2600.3383   -31.495011   -33.511731   -33.511731    2.0167206 
  913000    2513.3452   -32.267098    -34.21635    -34.21635    1.9492522 
  914000    2788.9491   -31.785891   -33.948891   -33.948891    2.1629998 
  915000    2851.7706   -32.818866   -35.030588   -35.030588    2.2117217 
  916000    2649.5883   -31.894127   -33.949044   -33.949044     2.054917 
  917000    2957.3395   -30.133448   -32.427045   -32.427045    2.2935968 
  918000    2837.6698   -31.395702   -33.596487   -33.596487    2.2007856 
  919000    2944.2755   -31.414485    -33.69795    -33.69795    2.2834649 
  920000    2647.3999   -31.458784   -33.512003   -33.512003    2.0532197 
  921000    2673.8913    -31.75291   -33.826675   -33.826675    2.0737655 
  922000    2620.1434   -32.625503   -34.657584   -34.657584    2.0320807 
  923000    3009.7667   -32.342804   -34.677061   -34.677061    2.3342572 
  924000    2895.4477   -31.805275   -34.050871   -34.050871     2.245596 
  925000    2754.4705   -31.531176   -33.667436   -33.667436    2.1362595 
  926000    2642.5889    -33.33221   -35.381698   -35.381698    2.0494885 
  927000    2715.6044   -32.245146   -34.351263   -34.351263    2.1061165 
  928000    2826.5735   -30.380547   -32.572727   -32.572727    2.1921798 
  929000    2705.4775   -30.172381   -32.270643   -32.270643    2.0982625 
  930000    2721.5075   -32.797566   -34.908261   -34.908261    2.1106948 
  931000    2917.8901   -31.012076   -33.275077   -33.275077    2.2630014 
  932000    2647.3029   -30.221315    -32.27446    -32.27446    2.0531445 
  933000    2475.3224    -30.08638   -32.006144   -32.006144    1.9197632 
  934000     2655.545   -32.023594   -34.083131   -34.083131    2.0595368 
  935000    2775.3175   -33.145046   -35.297474   -35.297474    2.1524277 
  936000    2977.7052   -30.339451   -32.648842   -32.648842    2.3093916 
  937000    2789.1636   -34.176795   -36.339962   -36.339962    2.1631662 
  938000     2651.694   -32.393473   -34.450023   -34.450023    2.0565501 
  939000    2699.5512   -34.036927   -36.130593   -36.130593    2.0936663 
  940000    2979.0434   -31.949387   -34.259816   -34.259816    2.3104295 
  941000    2539.5311   -32.758217   -34.727778   -34.727778    1.9695609 
  942000    2927.0648   -33.348119   -35.618236   -35.618236    2.2701169 
  943000    2852.2411   -33.379592   -35.591678   -35.591678    2.2120866 
  944000    3005.2669   -34.168028   -36.498796   -36.498796    2.3307674 
  945000    2949.5366   -32.938783   -35.226329   -35.226329    2.2875452 
  946000    2852.1586   -34.172205   -36.384228   -36.384228    2.2120226 
  947000    2890.3266   -33.423183   -35.664807   -35.664807    2.2416242 
  948000    2645.8262   -33.319711    -35.37171    -35.37171    2.0519993 
  949000    2598.6479   -34.058257   -36.073666   -36.073666    2.0154096 
  950000    2944.3337   -33.411155   -35.694665   -35.694665      2.28351 
  951000    2596.1007   -33.803449   -35.816884   -35.816884    2.0134341 
  952000    2902.9098   -33.036166   -35.287549   -35.287549    2.2513832 
  953000    2666.8704   -33.783192   -35.851512   -35.851512    2.0683203 
  954000    2778.0371   -33.947825   -36.102362   -36.102362    2.1545368 
  955000    2846.1633   -32.837916   -35.045289   -35.045289    2.2073729 
  956000    2712.8906   -34.009704   -36.113716   -36.113716    2.1040118 
  957000    2971.1513   -33.631384   -35.935693   -35.935693    2.3043087 
  958000    2863.6902   -32.306362   -34.527328   -34.527328    2.2209661 
  959000    3025.7151   -33.405406   -35.752033   -35.752033    2.3466262 
  960000    2747.1276   -33.101074   -35.231639   -35.231639    2.1305646 
  961000    2717.9398   -33.129265   -35.237193   -35.237193    2.1079278 
  962000     2949.745   -33.724186   -36.011893   -36.011893    2.2877068 
  963000    2959.1028   -32.917061   -35.212025   -35.212025    2.2949643 
  964000    2868.0835   -34.130829   -36.355202   -36.355202    2.2243733 
  965000    2874.4078    -33.10004   -35.329318   -35.329318    2.2292782 
  966000    2878.3897    -33.77427   -36.006637   -36.006637    2.2323665 
  967000    3012.0342   -33.675923   -36.011939   -36.011939    2.3360159 
  968000    2906.0509   -34.482797   -36.736617   -36.736617    2.2538193 
  969000    2819.2704   -32.527007   -34.713523   -34.713523    2.1865158 
  970000    2883.8849   -33.458471     -35.6951     -35.6951    2.2366283 
  971000    3032.6041   -32.935959   -35.287928   -35.287928    2.3519691 
  972000     2876.845   -33.118204   -35.349372   -35.349372    2.2311684 
  973000    2883.4096   -33.187256   -35.423516   -35.423516    2.2362596 
  974000    3017.3779   -33.681939   -36.022099   -36.022099    2.3401602 
  975000    2961.4256   -33.825518   -36.122284   -36.122284    2.2967658 
  976000    2887.7711   -33.390555   -35.630197   -35.630197    2.2396422 
  977000    2885.7354   -33.450276   -35.688339   -35.688339    2.2380634 
  978000    3064.3249   -33.673194   -36.049764   -36.049764    2.3765705 
  979000    2907.5158   -32.889454    -35.14441    -35.14441    2.2549555 
  980000     3005.762   -33.026014   -35.357165   -35.357165    2.3311514 
  981000    2987.6575   -33.024985   -35.342095   -35.342095    2.3171103 
  982000    3153.0123   -33.305071   -35.750424   -35.750424    2.4453529 
  983000    3031.1921   -33.385773   -35.736647   -35.736647     2.350874 
  984000    2873.3766   -33.378278   -35.606757   -35.606757    2.2284785 
  985000    3165.6123   -33.588361   -36.043486   -36.043486     2.455125 
  986000    3072.1233   -33.980867   -36.363485   -36.363485    2.3826186 
  987000    2766.1994   -33.404626   -35.549982   -35.549982     2.145356 
  988000    3135.5807   -33.394281   -35.826115   -35.826115    2.4318337 
  989000    3028.9987   -33.442486   -35.791659   -35.791659    2.3491729 
  990000     2939.198   -33.490879   -35.770406   -35.770406     2.279527 
  991000    3001.9916   -32.692872     -35.0211     -35.0211    2.3282272 
  992000    2928.8855    -33.75347   -36.024999   -36.024999     2.271529 
  993000    3034.8568   -33.214572   -35.568288   -35.568288    2.3537161 
  994000    2964.3578   -33.189318   -35.488358   -35.488358    2.2990399 
  995000    3012.6561   -33.103548   -35.440046   -35.440046    2.3364982 
  996000    3017.0078   -33.382158   -35.722031   -35.722031    2.3398732 
  997000     3029.924   -33.701771   -36.051661   -36.051661    2.3498905 
  998000    3180.1231   -33.111656   -35.578035   -35.578035    2.4663791 
  999000    2885.7394    -33.34583   -35.583897   -35.583897    2.2380666 
 1000000    3177.4101   -32.964172   -35.428447   -35.428447    2.4642749 
Loop time of 25.0714 on 1 procs for 1000000 steps with 7 atoms

Performance: 344.616 ns/day, 0.070 hours/ns, 39886.112 timesteps/s
99.1% CPU use with 1 MPI tasks x 1 OpenMP threads

MPI task timing breakdown:
Section |  min time  |  avg time  |  max time  |%varavg| %total
---------------------------------------------------------------
Pair    | 19.744     | 19.744     | 19.744     |   0.0 | 78.75
Neigh   | 2.1138     | 2.1138     | 2.1138     |   0.0 |  8.43
Comm    | 1.0278     | 1.0278     | 1.0278     |   0.0 |  4.10
Output  | 0.2666     | 0.2666     | 0.2666     |   0.0 |  1.06
Modify  | 1.5111     | 1.5111     | 1.5111     |   0.0 |  6.03
Other   |            | 0.4083     |            |       |  1.63

Nlocal:        7.00000 ave           7 max           7 min
Histogram: 1 0 0 0 0 0 0 0 0 0
Nghost:        131.000 ave         131 max         131 min
Histogram: 1 0 0 0 0 0 0 0 0 0
Neighs:         0.00000 ave           0 max           0 min
Histogram: 1 0 0 0 0 0 0 0 0 0
FullNghs:      62.0000 ave          62 max          62 min
Histogram: 1 0 0 0 0 0 0 0 0 0

Total # of neighbors = 62
Ave neighs/atom = 8.8571429
Neighbor list builds = 14589
Dangerous builds = 0
write_restart 	./endconf/endconf*1.restart
System init for write_restart ...

#==============Constant Temp Phase==================

# Minimize during the constant temperature phase
min_style       sd
minimize        1.0e-5 1.0e-7 500 1000
Per MPI rank memory allocation (min/avg/max) = 6.254 | 6.254 | 6.254 Mbytes
[...]
 1853000    739.28918   -36.428077    -37.00144    -37.00144   0.57336376 
 1854000     740.6885   -36.394448   -36.968897   -36.968897   0.57444902 
 1855000    731.38964   -36.393743    -36.96098    -36.96098   0.56723718 
 1856000    731.30802   -36.421343   -36.988517   -36.988517   0.56717388 
 1857000    728.37151   -36.440813   -37.005709   -37.005709   0.56489644 
 1858000     733.7336   -36.440297   -37.009352   -37.009352   0.56905507 
 1859000    728.70345   -36.437339   -37.002493   -37.002493   0.56515389 
 1860000    720.12966    -36.44797   -37.006475   -37.006475   0.55850438 
 1861000     711.9422   -36.482044   -37.034199   -37.034199   0.55215451 
 1862000    709.40777   -36.447308   -36.997497   -36.997497   0.55018891 
 1863000    709.72349   -36.440575   -36.991009   -36.991009   0.55043377 
 1864000       711.14   -36.416134   -36.967666   -36.967666   0.55153235 
 1865000     709.5352   -36.433935   -36.984222   -36.984222   0.55028774 
 1866000    705.31671   -36.468246   -37.015262   -37.015262   0.54701604 
 1867000    701.83053   -36.488826   -37.033138   -37.033138    0.5443123 
 1868000    701.27226   -36.480602   -37.024482   -37.024482   0.54387932 
 1869000    696.61037   -36.506473   -37.046737   -37.046737   0.54026374 
 1870000    682.85423   -36.506053   -37.035648   -37.035648   0.52959502 
 1871000    682.27278   -36.507505   -37.036649   -37.036649   0.52914407 
 1872000    682.82308   -36.487453   -37.017024   -37.017024   0.52957086 
 1873000    679.49253     -36.4629   -36.989888   -36.989888   0.52698782 
 1874000    683.93151   -36.450961   -36.981392   -36.981392   0.53043052 
 1875000    674.31671   -36.504221   -37.027194   -37.027194   0.52297365 
 1876000    671.64458   -36.527713   -37.048615   -37.048615   0.52090126 
 1877000    669.42661   -36.527258   -37.046439   -37.046439   0.51918109 
 1878000    664.52474   -36.533337   -37.048717   -37.048717   0.51537938 
 1879000     665.2744   -36.518657   -37.034618   -37.034618   0.51596079 
 1880000    661.26425   -36.543976   -37.056827   -37.056827   0.51285067 
 1881000    656.64887   -36.551987   -37.061258   -37.061258   0.50927117 
 1882000    648.78919   -36.541071   -37.044246   -37.044246   0.50317551 
 1883000    647.31814   -36.519728   -37.021762   -37.021762   0.50203462 
 1884000    649.62036   -36.529174   -37.032995   -37.032995   0.50382013 
 1885000    647.87345   -36.505051   -37.007516   -37.007516    0.5024653 
 1886000    646.60865   -36.538448   -37.039933   -37.039933   0.50148436 
 1887000    643.19735   -36.585167   -37.084006   -37.084006    0.4988387 
 1888000      639.499   -36.582066   -37.078037   -37.078037    0.4959704 
 1889000    630.89823    -36.57635    -37.06565    -37.06565   0.48929998 
 1890000    631.18832   -36.558311   -37.047836   -37.047836   0.48952496 
 1891000    628.33262   -36.555865   -37.043176   -37.043176   0.48731019 
 1892000     625.7963   -36.565644   -37.050987   -37.050987   0.48534312 
 1893000    618.98938   -36.584462   -37.064526   -37.064526   0.48006394 
 1894000    615.99409   -36.605513   -37.083254   -37.083254   0.47774091 
 1895000    609.28835   -36.590471   -37.063011   -37.063011    0.4725402 
 1896000    604.64459   -36.574345   -37.043284   -37.043284   0.46893869 
 1897000    610.74666   -36.564982   -37.038653   -37.038653   0.47367121 
 1898000     608.4416   -36.577113   -37.048996   -37.048996    0.4718835 
 1899000    607.27392   -36.583867   -37.054845   -37.054845   0.47097789 
 1900000    602.11814   -36.599916   -37.066895   -37.066895   0.46697927 
 1901000    604.20045   -36.615516    -37.08411    -37.08411   0.46859423 
 1902000    595.41138    -36.63566   -37.097438   -37.097438   0.46177777 
 1903000    590.05446   -36.638709   -37.096332   -37.096332   0.45762315 
 1904000    588.12774   -36.635141    -37.09127    -37.09127   0.45612886 
 1905000    584.78062   -36.623094   -37.076627   -37.076627   0.45353297 
 1906000    582.20732   -36.628401   -37.079938   -37.079938   0.45153722 
 1907000    579.86766    -36.62479   -37.074513   -37.074513   0.44972266 
 1908000     577.2627    -36.62452   -37.072223   -37.072223   0.44770236 
 1909000    574.24382   -36.630204   -37.075565   -37.075565   0.44536104 
 1910000    572.18108   -36.642759    -37.08652    -37.08652   0.44376126 
 1911000    570.25143   -36.671723   -37.113987   -37.113987   0.44226469 
 1912000    564.99872   -36.687291   -37.125482   -37.125482    0.4381909 
 1913000    554.00237   -36.694694   -37.124356   -37.124356   0.42966256 
 1914000    546.93518   -36.680607   -37.104788   -37.104788   0.42418152 
 1915000     551.6985   -36.645965   -37.073841   -37.073841   0.42787577 
 1916000    556.39479   -36.667376   -37.098894   -37.098894   0.43151803 
 1917000    550.31956   -36.686639   -37.113445   -37.113445   0.42680631 
 1918000    539.19757   -36.681961   -37.100141   -37.100141   0.41818054 
 1919000    542.70724    -36.66546   -37.086363   -37.086363    0.4209025 
 1920000    539.84706   -36.683618   -37.102302   -37.102302   0.41868425 
 1921000    525.63572   -36.687973   -37.095635   -37.095635   0.40766249 
 1922000    531.51891   -36.693659   -37.105884   -37.105884   0.41222527 
 1923000    530.53578    -36.68099   -37.092453   -37.092453   0.41146279 
 1924000    526.92999   -36.698819   -37.107485   -37.107485   0.40866628 
 1925000    526.83491   -36.706825   -37.115417   -37.115417   0.40859254 
 1926000    529.01912    -36.68818   -37.098466   -37.098466   0.41028653 
 1927000    524.19528   -36.699401   -37.105946   -37.105946   0.40654535 
 1928000    522.10068   -36.717877   -37.122797   -37.122797   0.40492086 
 1929000    515.37547   -36.730827   -37.130532   -37.130532   0.39970505 
 1930000    506.67752   -36.746764   -37.139724   -37.139724   0.39295926 
 1931000     501.7227   -36.751737   -37.140853   -37.140853   0.38911649 
 1932000    496.32398   -36.754928   -37.139858   -37.139858   0.38492946 
 1933000    492.74034   -36.746579   -37.128729   -37.128729   0.38215013 
 1934000     502.2687    -36.76863    -37.15817    -37.15817   0.38953995 
 1935000    499.45123   -36.801662   -37.189017   -37.189017   0.38735483 
 1936000    489.09533   -36.784168   -37.163491   -37.163491    0.3793232 
 1937000     488.7065   -36.764078     -37.1431     -37.1431   0.37902164 
 1938000    488.60955   -36.778229   -37.157175   -37.157175   0.37894645 
 1939000    492.10494   -36.776322   -37.157979   -37.157979   0.38165733 
 1940000    487.49588   -36.773853   -37.151935   -37.151935   0.37808273 
 1941000    484.77588   -36.771306    -37.14728    -37.14728    0.3759732 
 1942000    478.85909    -36.77719   -37.148574   -37.148574   0.37138437 
 1943000    472.05344   -36.768646   -37.134752   -37.134752   0.36610617 
 1944000    467.16314   -36.761607    -37.12392    -37.12392   0.36231345 
 1945000    463.92745   -36.754365   -37.114169   -37.114169   0.35980398 
 1946000    459.04377   -36.750618   -37.106634   -37.106634   0.35601638 
 1947000    454.57073   -36.759133   -37.111681   -37.111681   0.35254727 
 1948000    452.39034   -36.779924    -37.13078    -37.13078   0.35085625 
 1949000    450.91071   -36.793418   -37.143127   -37.143127    0.3497087 
 1950000    448.16992   -36.805738   -37.153321   -37.153321   0.34758306 
 1951000    445.48425   -36.819275   -37.164775   -37.164775   0.34550015 
 1952000    444.12575   -36.825488   -37.169935   -37.169935   0.34444655 
 1953000    445.32959   -36.823966   -37.169346   -37.169346    0.3453802 
 1954000    443.62648   -36.819316   -37.163375   -37.163375   0.34405934 
 1955000    440.06962   -36.813446   -37.154747   -37.154747   0.34130078 
 1956000    439.18781   -36.811287   -37.151904   -37.151904   0.34061688 
 1957000    436.53218   -36.806153    -37.14471    -37.14471   0.33855728 
 1958000    430.90934   -36.817009   -37.151206   -37.151206   0.33419642 
 1959000    422.78575   -36.837799   -37.165695   -37.165695   0.32789609 
 1960000    419.49915   -36.860746   -37.186093   -37.186093   0.32534713 
 1961000    413.80137   -36.874153   -37.195081   -37.195081   0.32092815 
 1962000    414.47582   -36.867294   -37.188745   -37.188745   0.32145123 
 1963000    410.47378   -36.847196   -37.165543   -37.165543    0.3183474 
 1964000    411.54774   -36.848442   -37.167622   -37.167622   0.31918032 
 1965000    410.48233   -36.838016    -37.15637    -37.15637   0.31835403 
 1966000    401.42213   -36.836702    -37.14803    -37.14803    0.3113273 
 1967000    392.24885   -36.870852   -37.175065   -37.175065   0.30421286 
 1968000    394.94207   -36.904382   -37.210684   -37.210684   0.30630162 
 1969000    398.60429   -36.896825   -37.205967   -37.205967   0.30914189 
 1970000     393.9464   -36.884217   -37.189746   -37.189746   0.30552942 
 1971000    391.48558   -36.882269    -37.18589    -37.18589    0.3036209 
 1972000    390.30985    -36.86634   -37.169049   -37.169049   0.30270904 
 1973000    382.01105   -36.856237   -37.152509   -37.152509   0.29627282 
 1974000    375.43043   -36.873874   -37.165043   -37.165043   0.29116915 
 1975000    373.67923   -36.891444   -37.181255   -37.181255   0.28981099 
 1976000    370.87312   -36.901191   -37.188825   -37.188825   0.28763468 
 1977000    366.85655   -36.913086   -37.197605   -37.197605   0.28451958 
 1978000    365.11841   -36.924982   -37.208154   -37.208154   0.28317155 
 1979000    365.58045   -36.922934   -37.206464   -37.206464   0.28352989 
 1980000    362.78965   -36.911515    -37.19288    -37.19288   0.28136546 
 1981000     357.1409   -36.906029   -37.183013   -37.183013   0.27698451 
 1982000     351.1799   -36.911338   -37.183699   -37.183699   0.27236139 
 1983000    345.96569   -36.924269   -37.192586   -37.192586   0.26831745 
 1984000    343.43601   -36.942799   -37.209155   -37.209155   0.26635553 
 1985000    343.26783    -36.95753   -37.223755   -37.223755   0.26622509 
 1986000    343.95344   -36.959305   -37.226062   -37.226062   0.26675683 
 1987000    344.23557   -36.945334    -37.21231    -37.21231   0.26697564 
 1988000     339.8563   -36.931465   -37.195044   -37.195044   0.26357925 
 1989000    331.81751   -36.932803   -37.190147   -37.190147   0.25734468 
 1990000    326.13512   -36.946987   -37.199925   -37.199925   0.25293764 
 1991000    323.04503   -36.969541   -37.220083   -37.220083   0.25054108 
 1992000    322.43844   -36.982921   -37.232991   -37.232991   0.25007064 
 1993000    323.02491   -36.981247   -37.231772   -37.231772   0.25052548 
 1994000    321.39308   -36.966606   -37.215866   -37.215866   0.24925989 
 1995000    314.63526   -36.963142   -37.207161   -37.207161    0.2440188 
 1996000    310.94025   -36.975645   -37.216798   -37.216798   0.24115309 
 1997000    308.54843   -36.988511   -37.227809   -37.227809   0.23929809 
 1998000    304.93985   -36.997886   -37.234386   -37.234386   0.23649941 
 1999000    304.45332   -36.995565   -37.231687   -37.231687   0.23612208 
 2000000    302.03184   -36.983521   -37.217765   -37.217765   0.23424408 
 2001000    294.17596   -36.988303   -37.216454   -37.216454   0.22815136 
 2002000    292.09161   -37.010294   -37.236829   -37.236829   0.22653482 
 2003000    293.26602   -37.016297   -37.243743   -37.243743   0.22744565 
 2004000    288.96014   -37.017714   -37.241821   -37.241821   0.22410618 
 2005000    286.07649   -37.018871   -37.240741   -37.240741   0.22186973 
 2006000    282.12081   -37.012506   -37.231308   -37.231308   0.21880186 
 2007000    276.36846   -37.022553   -37.236894   -37.236894   0.21434056 
 2008000     274.9131   -37.039408   -37.252619   -37.252619   0.21321185 
 2009000    274.52473   -37.033162   -37.246073   -37.246073   0.21291064 
 2010000    273.63973   -37.036981   -37.249205   -37.249205   0.21222427 
 2011000    268.91199   -37.049758   -37.258316   -37.258316   0.20855762 
 2012000    263.17651   -37.055885   -37.259995   -37.259995    0.2041094 
 2013000    259.47329   -37.080776   -37.282014   -37.282014   0.20123733 
 2014000    255.12971   -37.062769   -37.260638   -37.260638   0.19786862 
 2015000    253.22352   -37.032472   -37.228862   -37.228862   0.19639025 
 2016000    250.65001   -37.058874   -37.253269   -37.253269   0.19439434 
 2017000    254.58615   -36.988049   -37.185496   -37.185496   0.19744705 
 2018000    250.88953   -37.019292   -37.213872   -37.213872    0.1945801 
 2019000    247.54969   -37.162041   -37.354031   -37.354031   0.19198985 
 2020000    227.67351   -37.077342   -37.253917   -37.253917   0.17657467 
 2021000    251.06777   -37.096371   -37.291089   -37.291089   0.19471834 
 2022000    234.29686   -36.984694   -37.166406   -37.166406   0.18171148 
 2023000    245.54039   -37.093951   -37.284383   -37.284383   0.19043152 
 2024000     235.4996   -37.143657   -37.326302   -37.326302   0.18264428 
 2025000    232.19923   -37.165879   -37.345963   -37.345963   0.18008463 
 2026000    214.34637   -37.076039   -37.242278   -37.242278   0.16623866 
 2027000    219.33348   -37.077178   -37.247285   -37.247285   0.17010646 
 2028000    219.87402   -37.113746   -37.284272   -37.284272   0.17052569 
 2029000    215.22265   -37.183053   -37.349971   -37.349971   0.16691827 
 2030000    216.80672   -37.166907   -37.335053   -37.335053   0.16814681 
 2031000    210.68392   -37.094247   -37.257645   -37.257645   0.16339821 
 2032000    200.25996     -37.1213   -37.276614   -37.276614   0.15531379 
 2033000    200.20821   -37.162653   -37.317926   -37.317926   0.15527366 
 2034000    194.81403    -37.19402    -37.34511    -37.34511   0.15109014 
 2035000    197.89298   -37.184758   -37.338236   -37.338236   0.15347805 
 2036000    190.53661    -37.16714   -37.314913   -37.314913   0.14777274 
 2037000    184.08686   -37.165925   -37.308696   -37.308696   0.14277056 
 2038000    184.84657   -37.178855   -37.322214   -37.322214   0.14335977 
 2039000     186.0066   -37.152949   -37.297208   -37.297208   0.14425944 
 2040000    178.90698   -37.144983   -37.283736   -37.283736   0.13875326 
 2041000    174.85215   -37.171642   -37.307251   -37.307251   0.13560848 
 2042000    175.81264   -37.229821   -37.366174   -37.366174    0.1363534 
 2043000    171.93946   -37.178896   -37.312246   -37.312246   0.13334952 
 2044000    168.53609   -37.184471   -37.315181   -37.315181   0.13070999 
 2045000    168.01304   -37.240768   -37.371073   -37.371073   0.13030434 
 2046000     160.2946    -37.22039   -37.344708   -37.344708   0.12431822 
 2047000    165.37903   -37.257105   -37.385366   -37.385366    0.1282615 
 2048000    157.82541   -37.225997     -37.3484     -37.3484   0.12240322 
 2049000    152.06176   -37.236161   -37.354094   -37.354094   0.11793315 
 2050000    148.61972   -37.199074   -37.314338   -37.314338   0.11526364 
 2051000    145.94965   -37.228095   -37.341288   -37.341288   0.11319284 
 2052000    145.16152   -37.250236   -37.362818   -37.362818   0.11258159 
 2053000    138.51438   -37.259861   -37.367288   -37.367288   0.10742633 
 2054000    135.81387   -37.267175   -37.372507   -37.372507   0.10533192 
 2055000    134.24757   -37.269851   -37.373968   -37.373968   0.10411716 
 2056000    134.05817   -37.237098   -37.341069   -37.341069   0.10397027 
 2057000    127.80548   -37.234321   -37.333442   -37.333442  0.099120932 
 2058000    125.41348   -37.239799   -37.337065   -37.337065  0.097265784 
 2059000    123.41775   -37.290961   -37.386679   -37.386679  0.095717977 
 2060000     120.1634   -37.301552   -37.394746   -37.394746  0.093194029 
 2061000    118.68399   -37.297619   -37.389665   -37.389665  0.092046655 
 2062000    115.40616   -37.273908   -37.363412   -37.363412  0.089504506 
 2063000    110.65818    -37.27039   -37.356212   -37.356212  0.085822153 
 2064000    106.40417    -37.29601   -37.378533   -37.378533  0.082522914 
 2065000    104.11422     -37.3195   -37.400247   -37.400247  0.080746914 
 2066000    103.53235   -37.313656   -37.393952   -37.393952  0.080295638 
 2067000    100.54632   -37.291825   -37.369805   -37.369805  0.077979789 
 2068000    95.471937    -37.29569   -37.369735   -37.369735  0.074044298 
 2069000    92.008608   -37.321578   -37.392936   -37.392936  0.071358276 
 2070000     90.09538   -37.338084   -37.407958   -37.407958  0.069874452 
 2071000    88.183312   -37.332952   -37.401344   -37.401344  0.068391526 
 2072000    84.473824   -37.326567   -37.392082   -37.392082  0.065514592 
 2073000    79.959533   -37.323576   -37.385589   -37.385589  0.062013485 
 2074000    77.230332   -37.342863    -37.40276    -37.40276  0.059896824 
 2075000    74.852812   -37.354332   -37.412384   -37.412384  0.058052912 
 2076000    73.085705   -37.350408    -37.40709    -37.40709  0.056682413 
 2077000    69.707921   -37.342328   -37.396391   -37.396391  0.054062736 
 2078000    65.579746   -37.354761   -37.405622   -37.405622  0.050861085 
 2079000    62.657504     -37.3703   -37.418894   -37.418894  0.048594708 
 2080000     60.80497   -37.372593   -37.419751   -37.419751  0.047157956 
 2081000    57.860597   -37.367514   -37.412388   -37.412388  0.044874415 
 2082000    53.801782   -37.371994   -37.413721   -37.413721  0.041726557 
 2083000    50.896204   -37.385548   -37.425021   -37.425021  0.039473105 
 2084000    48.110278   -37.389036   -37.426349   -37.426349  0.037312449 
 2085000    45.240929   -37.385947   -37.421034   -37.421034  0.035087094 
 2086000    42.210629   -37.391678   -37.424415   -37.424415  0.032736913 
 2087000    39.195007   -37.401573   -37.431971   -37.431971  0.030398113 
 2088000    36.177041   -37.403974   -37.432031   -37.432031  0.028057497 
 2089000    33.214568   -37.404661   -37.430421   -37.430421  0.025759919 
 2090000    30.224148   -37.411427   -37.434868   -37.434868  0.023440667 
 2091000    27.212438    -37.41783   -37.438934   -37.438934  0.021104902 
 2092000    24.356809   -37.419436   -37.438326   -37.438326  0.018890188 
 2093000     21.11085   -37.423516   -37.439889   -37.439889  0.016372749 
 2094000    18.110809   -37.429432   -37.443478   -37.443478  0.014046035 
 2095000    15.246619   -37.431128   -37.442953   -37.442953  0.011824681 
 2096000    12.119993   -37.436113   -37.445513   -37.445513 0.0093997921 
 2097000    9.2114137   -37.439875   -37.447019   -37.447019  0.007144012 
 2098000    6.1635099   -37.443198   -37.447978   -37.447978 0.0047801771 
 2099000    3.1725335   -37.446885   -37.449345   -37.449345 0.0024604929 
 2100000   0.16333572   -37.450027   -37.450154   -37.450154 0.00012667679 
 2100042  0.038480581   -37.450165   -37.450195   -37.450195 2.9844033e-05 
Loop time of 23.5003 on 1 procs for 1000000 steps with 7 atoms

Performance: 367.655 ns/day, 0.065 hours/ns, 42552.662 timesteps/s
99.1% CPU use with 1 MPI tasks x 1 OpenMP threads

MPI task timing breakdown:
Section |  min time  |  avg time  |  max time  |%varavg| %total
---------------------------------------------------------------
Pair    | 18.404     | 18.404     | 18.404     |   0.0 | 78.31
Neigh   | 1.9141     | 1.9141     | 1.9141     |   0.0 |  8.15
Comm    | 1.0214     | 1.0214     | 1.0214     |   0.0 |  4.35
Output  | 0.27115    | 0.27115    | 0.27115    |   0.0 |  1.15
Modify  | 1.5011     | 1.5011     | 1.5011     |   0.0 |  6.39
Other   |            | 0.3885     |            |       |  1.65

Nlocal:        7.00000 ave           7 max           7 min
Histogram: 1 0 0 0 0 0 0 0 0 0
Nghost:        113.000 ave         113 max         113 min
Histogram: 1 0 0 0 0 0 0 0 0 0
Neighs:         0.00000 ave           0 max           0 min
Histogram: 1 0 0 0 0 0 0 0 0 0
FullNghs:      58.0000 ave          58 max          58 min
Histogram: 1 0 0 0 0 0 0 0 0 0

Total # of neighbors = 58
Ave neighs/atom = 8.2857143
Neighbor list builds = 13771
Dangerous builds = 0
write_restart 	./endconf/endconf*3.restart
System init for write_restart ...

Total wall time: 0:00:51
