LAMMPS (7 Feb 2024 - Update 1)
OMP_NUM_THREADS environment is not set. Defaulting to 1 thread. (src/comm.cpp:98)
  using 1 OpenMP thread(s) per MPI task
#============Initialization=================
units 			metal
atom_style 		atomic
boundary 		p p p

############################################
#              CLI Variables               #
############################################
variable 		seed index 200093          #
variable 		N index 7                  #
variable 		iter index 1000000         #
variable 		iterther index 100000      #
variable 		iexport index 1000         #
variable 		tempchauf index 3000       #
variable 		Tdamp index 0.001          #
variable 		timestep index 0.0001      #
variable 		box_size index 40		   #
############################################
############################################
#=========Simulation box definition=========
lattice 		sc 1.0
Lattice spacing in x,y,z = 1 1 1
region 			bigbox block 0 ${box_size} 0 ${box_size} 0 ${box_size}
region 			bigbox block 0 40 0 ${box_size} 0 ${box_size}
region 			bigbox block 0 40 0 40 0 ${box_size}
region 			bigbox block 0 40 0 40 0 40
create_box 		1 bigbox
Created orthogonal box = (0 0 0) to (40 40 40)
  1 by 1 by 1 MPI processor grid

#==================Atoms====================
region 			safezone block 6 9 6 9 6 9 units box
create_atoms 	1 random ${N} ${seed} safezone
create_atoms 	1 random 7 ${seed} safezone
create_atoms 	1 random 7 200093 safezone
Created 7 atoms
  using lattice units in orthogonal box = (0 0 0) to (40 40 40)
  create_atoms CPU = 0.000 seconds
labelmap 		atom 1 C
mass 			* 12.01



#==========Velocity initialization==========
velocity 		all create 0.0000001 1563967 rot yes dist gaussian

#======Pair style for atom interactions=============
pair_style 		airebo 1.8 1 1
pair_coeff 		* * CH.airebo C
Reading airebo potential file CH.airebo with DATE: 2011-10-25

#==============Neighbor selection===================
neighbor 		0.3 bin
neigh_modify 	every 1 delay 0 check yes



#==============Custom Wall force====================
#==========Wall with harmonic potential=============
#variable       k equal 10.0

#fix             xlo_wall all wall/harmonic xlo EDGE v_k 1.0 0.7
#fix             xhi_wall all wall/harmonic xhi EDGE v_k 1.0 0.7
#fix             ylo_wall all wall/harmonic ylo EDGE v_k 1.0 0.7
#fix             yhi_wall all wall/harmonic yhi EDGE v_k 1.0 0.7
#fix             zlo_wall all wall/harmonic zlo EDGE v_k 1.0 0.7
#fix             zhi_wall all wall/harmonic zhi EDGE v_k 1.0 0.7



#=====================Timestep======================
timestep 		${timestep}
timestep 		0.0001

#===============Define dump command=================
dump 			1 all cfg 100000 ./dump/dump.tensile_*.cfg mass type xs ys zs vx vy vz id

#========System temperature printing info===========
thermo_style 	custom step temp etotal epair pe ke
thermo 			${iexport}	# 1'000'000
thermo 			1000	



#====================CRC Cycle======================

#=============Condensation et chauffe===============

# Minimize during the heating phase
#min_style       sd
#minimize        1.0e-5 1.0e-7 500 1000

fix 			1 all nve
fix 			2 all temp/berendsen 0.0 ${tempchauf} ${Tdamp}
fix 			2 all temp/berendsen 0.0 3000 ${Tdamp}
fix 			2 all temp/berendsen 0.0 3000 0.001
fix             3 all momentum 1 linear 1 1 1 angular rescale

run 			${iter}
run 			1000000
Neighbor list info ...
  update: every = 1 steps, delay = 0 steps, check = yes
  max neighbors/atom: 2000, page size: 100000
  master list distance cutoff = 8.116371
  ghost atom cutoff = 8.116371
  binsize = 4.0581855, bins = 10 10 10
  1 neighbor lists, perpetual/occasional/extra = 1 0 0
  (1) pair airebo, perpetual
      attributes: full, newton on, ghost
      pair build: full/bin/ghost
      stencil: full/ghost/bin/3d
      bin: standard
Per MPI rank memory allocation (min/avg/max) = 3.888 | 3.888 | 3.888 Mbytes
   Step          Temp          TotEng         E_pair         PotEng         KinEng    
         0   1e-07          1284.8674      1284.8674      1284.8674      7.7556087e-11
      1000   14.920017     -24.183773     -24.195344     -24.195344      0.011571382  
      2000   11.671363     -24.843486     -24.852538     -24.852538      0.0090518526 
      3000   289.48937     -29.1572       -29.381717     -29.381717      0.22451663   
      4000   17.592557     -31.584686     -31.598331     -31.598331      0.013644099  
      5000   16.691701     -31.86989      -31.882836     -31.882836      0.01294543   
      6000   17.467411     -31.927818     -31.941365     -31.941365      0.01354704   
      7000   22.816846     -31.86848      -31.886175     -31.886175      0.017695853  
      8000   22.805529     -31.906571     -31.924258     -31.924258      0.017687076  
      9000   28.425817     -31.883485     -31.905531     -31.905531      0.022045952  
     10000   27.968681     -31.882394     -31.904086     -31.904086      0.021691415  
     11000   35.024369     -31.885725     -31.912888     -31.912888      0.02716353   
     12000   33.611497     -31.830931     -31.856999     -31.856999      0.026067762  
     13000   39.686615     -31.906362     -31.937141     -31.937141      0.030779386  
     14000   40.892532     -31.779557     -31.811271     -31.811271      0.031714648  
     15000   43.448847     -31.896826     -31.930523     -31.930523      0.033697225  
     16000   55.649524     -31.747923     -31.791082     -31.791082      0.043159593  
     17000   47.641736     -31.860119     -31.897068     -31.897068      0.036949066  
     18000   53.817931     -31.879357     -31.921096     -31.921096      0.041739081  
     19000   54.945077     -31.802336     -31.844949     -31.844949      0.042613252  
     20000   57.01465      -31.873787     -31.918005     -31.918005      0.044218332  
     21000   65.751228     -31.858364     -31.909358     -31.909358      0.05099408   
     22000   64.495716     -31.742583     -31.792603     -31.792603      0.050020354  
     23000   66.463178     -31.843757     -31.895303     -31.895303      0.051546241  
     24000   73.194575     -31.836852     -31.893619     -31.893619      0.056766848  
     25000   72.741044     -31.767614     -31.824029     -31.824029      0.056415107  
     26000   77.830878     -31.811733     -31.872096     -31.872096      0.060362583  
     27000   81.429601     -31.857442     -31.920595     -31.920595      0.063153612  
     28000   82.224163     -31.786192     -31.849962     -31.849962      0.063769843  
     29000   87.716711     -31.807773     -31.875803     -31.875803      0.068029649  
     30000   90.317037     -31.832706     -31.902752     -31.902752      0.07004636   
     31000   94.910447     -31.756867     -31.830476     -31.830476      0.073608828  
     32000   91.6229       -31.746493     -31.817552     -31.817552      0.071059136  
     33000   101.69842     -31.791225     -31.870098     -31.870098      0.078873318  
     34000   101.5341      -31.764185     -31.84293      -31.84293       0.078745875  
     35000   109.96305     -31.728803     -31.814086     -31.814086      0.08528304   
     36000   108.59337     -31.795086     -31.879306     -31.879306      0.084220771  
     37000   109.23077     -31.773681     -31.858396     -31.858396      0.08471511   
     38000   115.00203     -31.747263     -31.836454     -31.836454      0.089191075  
     39000   115.7186      -31.771803     -31.86155      -31.86155       0.089746814  
     40000   127.95399     -31.79184      -31.891076     -31.891076      0.099236107  
     41000   124.23428     -31.756316     -31.852667     -31.852667      0.09635125   
     42000   116.00488     -31.704327     -31.794296     -31.794296      0.089968847  
     43000   123.24551     -31.737148     -31.832732     -31.832732      0.095584396  
     44000   139.92689     -31.754392     -31.862914     -31.862914      0.10852182   
     45000   142.27063     -31.713155     -31.823495     -31.823495      0.11033954   
     46000   131.01998     -31.685936     -31.78755      -31.78755       0.10161397   
     47000   143.62243     -31.750215     -31.861603     -31.861603      0.11138793   
     48000   136.7258      -31.69951      -31.805549     -31.805549      0.10603918   
     49000   147.64555     -31.688577     -31.803085     -31.803085      0.11450811   
     50000   152.51017     -31.694629     -31.812909     -31.812909      0.11828092   
     51000   150.63613     -31.712023     -31.82885      -31.82885       0.11682749   
     52000   153.45634     -31.751526     -31.870541     -31.870541      0.11901474   
     53000   152.25729     -31.658457     -31.776542     -31.776542      0.1180848    
     54000   164.50656     -31.712656     -31.840241     -31.840241      0.12758485   
     55000   166.16327     -31.743047     -31.871917     -31.871917      0.12886973   
     56000   171.08636     -31.64199      -31.774678     -31.774678      0.13268789   
     57000   161.90575     -31.628197     -31.753765     -31.753765      0.12556777   
     58000   173.14192     -31.649003     -31.783285     -31.783285      0.1342821    
     59000   182.71253     -31.645222     -31.786927     -31.786927      0.14170469   
     60000   180.52262     -31.707193     -31.847199     -31.847199      0.14000628   
     61000   192.0729      -31.646869     -31.795833     -31.795833      0.14896422   
     62000   187.39918     -31.463813     -31.609153     -31.609153      0.14533947   
     63000   188.98366     -31.610593     -31.757161     -31.757161      0.14656833   
     64000   172.81673     -31.664724     -31.798754     -31.798754      0.13402989   
     65000   198.69057     -31.688819     -31.842915     -31.842915      0.15409663   
     66000   191.54254     -31.658113     -31.806666     -31.806666      0.1485529    
     67000   210.39599     -31.57781      -31.740985     -31.740985      0.1631749    
     68000   188.1874      -31.638982     -31.784933     -31.784933      0.14595078   
     69000   204.07061     -31.619964     -31.778233     -31.778233      0.15826918   
     70000   220.26879     -31.661662     -31.832494     -31.832494      0.17083185   
     71000   217.72312     -31.54601      -31.714867     -31.714867      0.16885753   
     72000   219.48806     -31.685617     -31.855843     -31.855843      0.17022635   
     73000   220.86983     -31.665951     -31.837249     -31.837249      0.171298     
     74000   214.66689     -31.453875     -31.620363     -31.620363      0.16648724   
     75000   226.35671     -31.552245     -31.727798     -31.727798      0.17555341   
     76000   212.43034     -31.634516     -31.799268     -31.799268      0.16475266   
     77000   233.60133     -31.627937     -31.809109     -31.809109      0.18117205   
     78000   241.18301     -31.494047     -31.681099     -31.681099      0.1870521    
     79000   225.20238     -31.538872     -31.71353      -31.71353       0.17465815   
     80000   230.5116      -31.645265     -31.82404      -31.82404       0.17877578   
     81000   249.4582      -31.575662     -31.769132     -31.769132      0.19347002   
     82000   245.43339     -31.452042     -31.64239      -31.64239       0.19034853   
     83000   242.98449     -31.507135     -31.695584     -31.695584      0.18844927   
     84000   253.71905     -31.560668     -31.757443     -31.757443      0.19677457   
     85000   247.01491     -31.420848     -31.612423     -31.612423      0.1915751    
     86000   266.45477     -31.545162     -31.751814     -31.751814      0.20665189   
     87000   257.00693     -31.627752     -31.827076     -31.827076      0.19932452   
     88000   283.98235     -31.366682     -31.586928     -31.586928      0.2202456    
     89000   261.20256     -31.481583     -31.684162     -31.684162      0.20257848   
     90000   268.26368     -31.57726      -31.785315     -31.785315      0.20805482   
     91000   262.23239     -31.521515     -31.724892     -31.724892      0.20337718   
     92000   288.68166     -31.228464     -31.452355     -31.452355      0.2238902    
     93000   266.76223     -31.472731     -31.679621     -31.679621      0.20689035   
     94000   262.2006      -31.53759      -31.740943     -31.740943      0.20335252   
     95000   276.31786     -31.601436     -31.815737     -31.815737      0.21430132   
     96000   289.21015     -31.506185     -31.730485     -31.730485      0.22430008   
     97000   287.54048     -31.213892     -31.436898     -31.436898      0.22300514   
     98000   290.11349     -31.484656     -31.709656     -31.709656      0.22500067   
     99000   297.77011     -31.609216     -31.840155     -31.840155      0.23093884   
    100000   296.15615     -31.500314     -31.730001     -31.730001      0.22968712   
    101000   304.54701     -31.297085     -31.53328      -31.53328       0.23619475   
    102000   317.07366     -31.431213     -31.677123     -31.677123      0.24590992   
    103000   302.85071     -31.477515     -31.712394     -31.712394      0.23487916   
    104000   306.47637     -31.510968     -31.748659     -31.748659      0.23769108   
    105000   279.12674     -31.325376     -31.541856     -31.541856      0.21647978   
    106000   367.78281     -31.35808      -31.643317     -31.643317      0.28523796   
    107000   311.38761     -31.295544     -31.537044     -31.537044      0.24150004   
    108000   317.3231      -31.444312     -31.690415     -31.690415      0.24610338   
    109000   309.52128     -31.409844     -31.649897     -31.649897      0.24005259   
    110000   347.87416     -31.47578      -31.745577     -31.745577      0.26979759   
    111000   346.49102     -31.50717      -31.775895     -31.775895      0.26872487   
    112000   313.64634     -31.383893     -31.627145     -31.627145      0.24325183   
    113000   326.59424     -31.485986     -31.739279     -31.739279      0.25329372   
    114000   363.65092     -31.305583     -31.587616     -31.587616      0.28203342   
    115000   351.457       -31.258699     -31.531276     -31.531276      0.2725763    
    116000   353.1388      -31.327735     -31.601616     -31.601616      0.27388063   
    117000   376.53949     -31.397856     -31.689885     -31.689885      0.29202929   
    118000   355.88595     -31.278786     -31.554798     -31.554798      0.27601121   
    119000   349.53647     -31.373202     -31.644288     -31.644288      0.27108681   
    120000   348.17109     -31.439486     -31.709514     -31.709514      0.27002788   
    121000   363.40636     -31.347888     -31.629731     -31.629731      0.28184375   
    122000   354.75855     -31.377673     -31.65281      -31.65281       0.27513685   
    123000   357.65538     -31.33545      -31.612834     -31.612834      0.27738352   
    124000   392.24914     -31.493471     -31.797684     -31.797684      0.30421309   
    125000   377.61144     -31.256855     -31.549716     -31.549716      0.29286065   
    126000   375.67663     -31.278165     -31.569525     -31.569525      0.29136009   
    127000   365.89319     -31.397052     -31.680824     -31.680824      0.28377244   
    128000   375.42593     -31.373673     -31.664839     -31.664839      0.29116566   
    129000   364.64724     -31.130588     -31.413394     -31.413394      0.28280613   
    130000   370.86532     -31.472836     -31.760464     -31.760464      0.28762863   
    131000   402.52312     -31.320796     -31.632977     -31.632977      0.31218118   
    132000   389.67981     -31.232338     -31.534559     -31.534559      0.30222041   
    133000   417.98392     -31.403796     -31.727968     -31.727968      0.32417198   
    134000   373.31401     -31.323593     -31.613121     -31.613121      0.28952774   
    135000   404.40087     -31.405405     -31.719042     -31.719042      0.31363749   
    136000   443.6053      -31.264103     -31.608146     -31.608146      0.34404291   
    137000   416.38611     -31.063556     -31.386489     -31.386489      0.32293277   
    138000   401.31169     -31.29697      -31.608212     -31.608212      0.31124164   
    139000   439.33266     -31.350923     -31.691652     -31.691652      0.34072922   
    140000   422.95137     -31.2593       -31.587324     -31.587324      0.32802453   
    141000   428.04829     -31.065869     -31.397846     -31.397846      0.33197751   
    142000   411.2         -31.382176     -31.701087     -31.701087      0.31891063   
    143000   427.40849     -31.268633     -31.600114     -31.600114      0.3314813    
    144000   457.83472     -31.321663     -31.676742     -31.676742      0.35507869   
    145000   434.07838     -31.05105      -31.387704     -31.387704      0.33665421   
    146000   432.83652     -31.272035     -31.607726     -31.607726      0.33569107   
    147000   468.33916     -31.389835     -31.75306      -31.75306       0.36322552   
    148000   429.20208     -31.145711     -31.478583     -31.478583      0.33287234   
    149000   441.38759     -30.998249     -31.340572     -31.340572      0.34232294   
    150000   424.61481     -31.360403     -31.689717     -31.689717      0.32931463   
    151000   447.08425     -31.264287     -31.611028     -31.611028      0.34674105   
    152000   448.13883     -31.146017     -31.493576     -31.493576      0.34755894   
    153000   473.24741     -30.939656     -31.306688     -31.306688      0.36703217   
    154000   460.5827      -31.401192     -31.758402     -31.758402      0.35720992   
    155000   469.83098     -31.303724     -31.668106     -31.668106      0.36438253   
    156000   466.28093     -30.978261     -31.33989      -31.33989       0.36162924   
    157000   433.93402     -31.113838     -31.450381     -31.450381      0.33654225   
    158000   467.60479     -31.341853     -31.704509     -31.704509      0.36265598   
    159000   493.47763     -31.278536     -31.661258     -31.661258      0.38272194   
    160000   483.63306     -30.545942     -30.921029     -30.921029      0.37508688   
    161000   475.75284     -30.909491     -31.278467     -31.278467      0.36897529   
    162000   491.02366     -31.319704     -31.700523     -31.700523      0.38081874   
    163000   503.37024     -31.0789       -31.469294     -31.469294      0.39039426   
    164000   499.57192     -31.143077     -31.530525     -31.530525      0.38744844   
    165000   524.5407      -31.045723     -31.452536     -31.452536      0.40681324   
    166000   491.49845     -31.257444     -31.638631     -31.638631      0.38118697   
    167000   517.06428     -31.05798      -31.458995     -31.458995      0.40101482   
    168000   476.70208     -31.112778     -31.48249      -31.48249       0.36971148   
    169000   511.93739     -31.066914     -31.463953     -31.463953      0.39703861   
    170000   541.94879     -30.970312     -31.390626     -31.390626      0.42031427   
    171000   538.49979     -30.973731     -31.39137      -31.39137       0.41763937   
    172000   514.88529     -31.220296     -31.619621     -31.619621      0.39932488   
    173000   500.43382     -31.107542     -31.495659     -31.495659      0.38811689   
    174000   564.04186     -30.921168     -31.358617     -31.358617      0.4374488    
    175000   519.44964     -31.213647     -31.616512     -31.616512      0.40286482   
    176000   536.05617     -31.135972     -31.551716     -31.551716      0.41574419   
    177000   542.83254     -31.147557     -31.568556     -31.568556      0.42099968   
    178000   549.67722     -31.028239     -31.454547     -31.454547      0.42630814   
    179000   536.87067     -31.186388     -31.602764     -31.602764      0.41637588   
    180000   579.10318     -30.990192     -31.439321     -31.439321      0.44912976   
    181000   620.98463     -30.860277     -31.341889     -31.341889      0.48161138   
    182000   531.43476     -31.085293     -31.497453     -31.497453      0.41216      
    183000   561.78974     -31.054129     -31.489831     -31.489831      0.43570214   
    184000   548.86075     -30.866525     -31.2922       -31.2922        0.42567492   
    185000   558.44712     -31.030768     -31.463877     -31.463877      0.43310973   
    186000   558.03904     -31.120998     -31.553791     -31.553791      0.43279324   
    187000   549.36071     -31.148525     -31.574588     -31.574588      0.42606267   
    188000   529.87925     -30.826374     -31.237327     -31.237327      0.41095361   
    189000   580.08379     -31.001273     -31.451163     -31.451163      0.44989029   
    190000   581.87307     -30.838817     -31.290095     -31.290095      0.45127798   
    191000   569.81336     -31.125973     -31.567898     -31.567898      0.44192494   
    192000   563.2237      -31.131835     -31.56865      -31.56865       0.43681426   
    193000   552.8778      -30.8492       -31.27799      -31.27799       0.42879039   
    194000   576.25555     -31.029672     -31.476593     -31.476593      0.44692126   
    195000   586.02175     -31.153        -31.607496     -31.607496      0.45449554   
    196000   600.81879     -30.996036     -31.462008     -31.462008      0.46597154   
    197000   600.44533     -30.884138     -31.34982      -31.34982       0.4656819    
    198000   597.59966     -31.106432     -31.569907     -31.569907      0.46347491   
    199000   603.529       -30.577195     -31.045268     -31.045268      0.46807348   
    200000   575.93418     -31.006148     -31.45282      -31.45282       0.44667201   
    201000   620.2597      -30.878795     -31.359845     -31.359845      0.48104915   
    202000   584.31509     -30.825061     -31.278233     -31.278233      0.45317192   
    203000   617.54896     -31.237285     -31.716231     -31.716231      0.47894681   
    204000   606.92757     -30.805733     -31.276442     -31.276442      0.47070927   
    205000   599.4023      -30.922346     -31.387219     -31.387219      0.46487297   
    206000   609.29689     -30.967319     -31.439866     -31.439866      0.47254683   
    207000   654.65251     -30.826469     -31.334191     -31.334191      0.50772287   
    208000   640.43121     -30.8223       -31.318993     -31.318993      0.49669339   
    209000   642.03137     -31.102244     -31.600178     -31.600178      0.49793441   
    210000   622.13973     -30.911283     -31.39379      -31.39379       0.48250723   
    211000   630.33354     -30.806708     -31.29557      -31.29557       0.48886203   
    212000   614.14192     -31.114629     -31.590933     -31.590933      0.47630444   
    213000   653.29893     -30.607447     -31.11412      -31.11412       0.50667309   
    214000   640.70441     -30.921995     -31.4189       -31.4189        0.49690527   
    215000   646.22848     -30.89371      -31.394899     -31.394899      0.50118952   
    216000   639.83982     -30.793298     -31.289533     -31.289533      0.49623473   
    217000   623.99645     -31.028323     -31.51227      -31.51227       0.48394723   
    218000   668.18939     -30.949038     -31.46726      -31.46726       0.51822154   
    219000   668.27903     -30.861298     -31.379589     -31.379589      0.51829107   
    220000   700.58357     -30.844696     -31.388041     -31.388041      0.54334521   
    221000   701.46141     -30.715045     -31.259071     -31.259071      0.54402602   
    222000   699.34458     -33.9805       -34.522885     -34.522885      0.54238429   
    223000   651.39607     -35.016399     -35.521596     -35.521596      0.5051973    
    224000   731.65607     -33.95042      -34.517864     -34.517864      0.56744382   
    225000   663.63815     -34.852023     -35.366714     -35.366714      0.51469178   
    226000   673.42959     -34.490164     -35.01245      -35.01245       0.52228564   
    227000   751.44645     -34.125948     -34.70874      -34.70874       0.58279246   
    228000   662.50566     -34.986101     -35.499915     -35.499915      0.51381347   
    229000   694.6958      -33.967821     -34.5066       -34.5066        0.53877888   
    230000   686.7878      -34.878917     -35.411563     -35.411563      0.53264574   
    231000   708.69641     -34.208248     -34.757885     -34.757885      0.5496372    
    232000   676.22506     -34.786749     -35.311203     -35.311203      0.5244537    
    233000   720.66537     -34.402781     -34.961701     -34.961701      0.55891986   
    234000   658.65321     -34.658331     -35.169157     -35.169157      0.51082565   
    235000   737.45035     -34.438883     -35.010821     -35.010821      0.57193763   
    236000   705.83277     -34.738184     -35.285601     -35.285601      0.54741628   
    237000   702.76677     -34.344099     -34.889137     -34.889137      0.54503841   
    238000   721.87188     -34.781094     -35.34095      -35.34095       0.55985559   
    239000   671.24906     -34.532811     -35.053406     -35.053406      0.52059451   
    240000   745.667       -34.808481     -35.386792     -35.386792      0.57831015   
    241000   740.27346     -33.988065     -34.562193     -34.562193      0.57412713   
    242000   722.21478     -34.777787     -35.337909     -35.337909      0.56012153   
    243000   793.86036     -34.325954     -34.941641     -34.941641      0.61568703   
    244000   730.28714     -34.494252     -35.060635     -35.060635      0.56638213   
    245000   750.33408     -34.537011     -35.118941     -35.118941      0.58192975   
    246000   624.5752      -34.576462     -35.060858     -35.060858      0.48439608   
    247000   727.53572     -34.221891     -34.786139     -34.786139      0.56424823   
    248000   707.57521     -34.627162     -35.175929     -35.175929      0.54876765   
    249000   792.20655     -34.239019     -34.853423     -34.853423      0.6144044    
    250000   710.81292     -34.633973     -35.185252     -35.185252      0.55127868   
    251000   759.9905      -34.721647     -35.311066     -35.311066      0.58941889   
    252000   693.95247     -34.420039     -34.958241     -34.958241      0.53820238   
    253000   796.43108     -34.708484     -35.326165     -35.326165      0.61768078   
    254000   797.61859     -34.754406     -35.373008     -35.373008      0.61860176   
    255000   753.54235     -34.297581     -34.881999     -34.881999      0.58441796   
    256000   806.65871     -34.593055     -35.218668     -35.218668      0.62561293   
    257000   759.32073     -34.572006     -35.160906     -35.160906      0.58889945   
    258000   724.10606     -34.126607     -34.688196     -34.688196      0.56158832   
    259000   758.5539      -34.879327     -35.467631     -35.467631      0.58830472   
    260000   713.81935     -33.985528     -34.539138     -34.539138      0.55361036   
    261000   872.61441     -34.493494     -35.17026      -35.17026       0.67676559   
    262000   747.85699     -34.008284     -34.588293     -34.588293      0.58000862   
    263000   824.33872     -34.672595     -35.311919     -35.311919      0.63932486   
    264000   737.06765     -34.234215     -34.805856     -34.805856      0.57164083   
    265000   817.61595     -34.477068     -35.111179     -35.111179      0.63411094   
    266000   779.62458     -34.524329     -35.128975     -35.128975      0.60464632   
    267000   826.95971     -34.554983     -35.19634      -35.19634       0.64135759   
    268000   751.22118     -33.979225     -34.561842     -34.561842      0.58261775   
    269000   790.09415     -34.776046     -35.388813     -35.388813      0.61276611   
    270000   890.42952     -33.872094     -34.562676     -34.562676      0.69058229   
    271000   835.53447     -34.517216     -35.165224     -35.165224      0.64800784   
    272000   772.8685      -34.355008     -34.954414     -34.954414      0.59940656   
    273000   809.89097     -34.542701     -35.170821     -35.170821      0.62811974   
    274000   823.72062     -34.533198     -35.172044     -35.172044      0.63884548   
    275000   810.22658     -34.238066     -34.866446     -34.866446      0.62838003   
    276000   838.23512     -34.662752     -35.312855     -35.312855      0.65010236   
    277000   823.0068      -34.295566     -34.933857     -34.933857      0.63829187   
    278000   821.35279     -34.56979      -35.206799     -35.206799      0.63700908   
    279000   816.09552     -34.263171     -34.896102     -34.896102      0.63293175   
    280000   818.46605     -34.05414      -34.68891      -34.68891       0.63477024   
    281000   870.70266     -34.737599     -35.412882     -35.412882      0.67528291   
    282000   853.20859     -34.217148     -34.878863     -34.878863      0.66171519   
    283000   826.03669     -34.62119      -35.261831     -35.261831      0.64064173   
    284000   866.13448     -34.26324      -34.93498      -34.93498       0.67174001   
    285000   866.69545     -34.703348     -35.375523     -35.375523      0.67217507   
    286000   930.67724     -34.234022     -34.955819     -34.955819      0.72179685   
    287000   849.71458     -34.189062     -34.848067     -34.848067      0.65900538   
    288000   854.03261     -34.19266      -34.855015     -34.855015      0.66235427   
    289000   909.54949     -34.530902     -35.236313     -35.236313      0.705411     
    290000   864.7278      -34.444559     -35.115208     -35.115208      0.67064905   
    291000   860.42569     -34.063203     -34.730516     -34.730516      0.66731249   
    292000   898.3156      -34.366656     -35.063354     -35.063354      0.69669843   
    293000   951.70264     -34.53714      -35.275243     -35.275243      0.73810333   
    294000   820.95837     -34.079297     -34.716        -34.716         0.63670319   
    295000   867.6607      -34.495152     -35.168075     -35.168075      0.67292369   
    296000   841.24701     -34.390848     -35.043287     -35.043287      0.65243826   
    297000   909.49145     -34.140422     -34.845788     -34.845788      0.70536598   
    298000   831.63927     -34.350914     -34.995901     -34.995901      0.64498687   
    299000   960.06862     -33.985772     -34.730364     -34.730364      0.74459165   
    300000   897.75509     -34.52927      -35.225534     -35.225534      0.69626372   
    301000   895.84164     -34.123412     -34.818192     -34.818192      0.69477973   
    302000   900.73273     -34.544571     -35.243144     -35.243144      0.69857306   
    303000   919.11344     -34.36653      -35.079359     -35.079359      0.71282842   
    304000   885.88004     -34.518209     -35.205263     -35.205263      0.68705389   
    305000   899.96429     -34.141376     -34.839353     -34.839353      0.69797709   
    306000   972.83666     -34.434049     -35.188543     -35.188543      0.75449405   
    307000   920.79494     -33.994927     -34.709059     -34.709059      0.71413252   
    308000   926.80425     -34.162643     -34.881436     -34.881436      0.71879311   
    309000   952.96507     -34.220165     -34.959248     -34.959248      0.73908242   
    310000   977.19899     -34.258674     -35.016551     -35.016551      0.7578773    
    311000   954.37053     -34.270408     -35.01058      -35.01058       0.74017244   
    312000   1073.7631     -33.501154     -34.333922     -34.333922      0.83276866   
    313000   936.18124     -34.549845     -35.27591      -35.27591       0.72606553   
    314000   915.40634     -33.418085     -34.128038     -34.128038      0.70995334   
    315000   951.95842     -34.69228      -35.430582     -35.430582      0.7383017    
    316000   936.16536     -33.573266     -34.299319     -34.299319      0.72605322   
    317000   966.29133     -34.020886     -34.770304     -34.770304      0.74941774   
    318000   909.09301     -34.208897     -34.913954     -34.913954      0.70505696   
    319000   883.7942      -33.557603     -34.243039     -34.243039      0.6854362    
    320000   985.18357     -34.35032      -35.11439      -35.11439       0.76406982   
    321000   923.67774     -33.995546     -34.711914     -34.711914      0.71636831   
    322000   974.67098     -34.354548     -35.110465     -35.110465      0.75591668   
    323000   1055.9855     -33.859528     -34.678509     -34.678509      0.81898102   
    324000   1010.1445     -34.276281     -35.059709     -35.059709      0.78342857   
    325000   1026.6788     -33.772754     -34.569006     -34.569006      0.79625191   
    326000   990.70053     -34.545021     -35.31337      -35.31337       0.76834856   
    327000   903.15395     -33.678656     -34.379107     -34.379107      0.70045086   
    328000   1012.3953     -34.502676     -35.28785      -35.28785       0.78517416   
    329000   969.76265     -33.760752     -34.512862     -34.512862      0.75210996   
    330000   1033.231      -33.763617     -34.564951     -34.564951      0.80133354   
    331000   965.26929     -34.020924     -34.76955      -34.76955       0.74862509   
    332000   1105.3108     -33.115346     -33.972582     -33.972582      0.85723583   
    333000   1016.652      -34.368785     -35.157261     -35.157261      0.7884755    
    334000   1024.4681     -33.417801     -34.212338     -34.212338      0.79453738   
    335000   1039.7081     -33.417255     -34.223612     -34.223612      0.8063569    
    336000   1001.5461     -34.647002     -35.423762     -35.423762      0.77675994   
    337000   1015.1717     -33.18419      -33.971517     -33.971517      0.78732747   
    338000   1061.027      -34.314869     -35.13776      -35.13776       0.82289099   
    339000   1001.459      -33.861883     -34.638575     -34.638575      0.77669244   
    340000   933.35684     -33.423906     -34.147781     -34.147781      0.72387504   
    341000   1002.4323     -34.577366     -35.354813     -35.354813      0.77744725   
    342000   998.79207     -33.41798      -34.192604     -34.192604      0.77462404   
    343000   1072.083      -34.44565      -35.277116     -35.277116      0.83146563   
    344000   1001.6493     -33.99649      -34.77333      -34.77333       0.77684004   
    345000   981.86909     -33.971067     -34.732567     -34.732567      0.76149925   
    346000   1087.9809     -33.524796     -34.368592     -34.368592      0.84379545   
    347000   1043.6338     -34.52037      -35.329772     -35.329772      0.80940156   
    348000   1040.7355     -33.73405      -34.541204     -34.541204      0.80715372   
    349000   1030.5978     -33.820169     -34.61946      -34.61946       0.79929132   
    350000   963.77374     -33.921469     -34.668934     -34.668934      0.7474652    
    351000   1101.4436     -34.328924     -35.18316      -35.18316       0.85423656   
    352000   1010.779      -33.703719     -34.48764      -34.48764       0.78392066   
    353000   1050.9511     -33.823668     -34.638745     -34.638745      0.81507658   
    354000   1095.316      -34.047433     -34.896917     -34.896917      0.84948426   
    355000   1089.06       -34.233252     -35.077884     -35.077884      0.84463233   
    356000   1063.5616     -33.842865     -34.667721     -34.667721      0.82485678   
    357000   1066.2867     -34.122056     -34.949027     -34.949027      0.82697026   
    358000   912.50492     -33.228141     -33.935844     -33.935844      0.70770311   
    359000   1161.9435     -34.248371     -35.149529     -35.149529      0.90115794   
    360000   1142.0257     -33.583179     -34.468889     -34.468889      0.88571042   
    361000   1083.723      -33.976223     -34.816716     -34.816716      0.84049312   
    362000   1050.7221     -34.063077     -34.877976     -34.877976      0.81489897   
    363000   1062.73       -33.820636     -34.644848     -34.644848      0.82421181   
    364000   1073.05       -34.169664     -35.001879     -35.001879      0.83221559   
    365000   1128.9474     -33.912243     -34.787811     -34.787811      0.87556739   
    366000   1088.1776     -34.041627     -34.885575     -34.885575      0.84394794   
    367000   1272.4577     -33.714443     -34.701312     -34.701312      0.98686837   
    368000   1145.3843     -33.923557     -34.811872     -34.811872      0.88831525   
    369000   1096.5101     -34.038763     -34.889174     -34.889174      0.85041031   
    370000   1128.6028     -33.746052     -34.621352     -34.621352      0.87530017   
    371000   1147.1084     -33.413988     -34.30364      -34.30364       0.88965237   
    372000   1138.6134     -34.347409     -35.230473     -35.230473      0.88306401   
    373000   1104.3778     -33.317152     -34.173664     -34.173664      0.85651221   
    374000   1107.7171     -33.643366     -34.502469     -34.502469      0.85910208   
    375000   1151.6678     -34.319918     -35.213107     -35.213107      0.89318846   
    376000   1027.5757     -32.9848       -33.781748     -33.781748      0.7969475    
    377000   1130.0964     -34.150484     -35.026942     -35.026942      0.87645852   
    378000   1077.4611     -33.847256     -34.682893     -34.682893      0.83563664   
    379000   1128.6267     -32.870232     -33.745551     -33.745551      0.87531873   
    380000   1131.9787     -34.514688     -35.392607     -35.392607      0.87791842   
    381000   1160.4729     -33.581993     -34.48201      -34.48201       0.90001734   
    382000   1144.7602     -33.934926     -34.822757     -34.822757      0.88783118   
    383000   1085.8907     -33.879991     -34.722165     -34.722165      0.84217434   
    384000   1222.5806     -33.191261     -34.139447     -34.139447      0.94818565   
    385000   1143.5727     -34.060073     -34.946983     -34.946983      0.88691023   
    386000   1122.8714     -33.543665     -34.414521     -34.414521      0.8708551    
    387000   1163.3211     -34.250016     -35.152242     -35.152242      0.9022263    
    388000   1208.4529     -33.304611     -34.24184      -34.24184       0.93722879   
    389000   1162.2186     -34.180365     -35.081737     -35.081737      0.90137131   
    390000   1072.3067     -33.464039     -34.295678     -34.295678      0.83163913   
    391000   1236.234      -33.846621     -34.805395     -34.805395      0.95877471   
    392000   1156.8941     -34.05231      -34.949552     -34.949552      0.89724182   
    393000   1210.3681     -33.783541     -34.722255     -34.722255      0.93871414   
    394000   1193.9299     -34.111984     -35.03795      -35.03795       0.92596531   
    395000   1191.5588     -33.994671     -34.918797     -34.918797      0.92412638   
    396000   1181.1117     -33.86184      -34.777864     -34.777864      0.916024     
    397000   1165.1904     -34.245355     -35.149031     -35.149031      0.90367606   
    398000   1232.5254     -33.748043     -34.703941     -34.703941      0.95589847   
    399000   1234.4233     -34.086353     -35.043724     -35.043724      0.95737042   
    400000   1157.2691     -33.711851     -34.609383     -34.609383      0.89753263   
    401000   1199.5657     -33.799745     -34.730082     -34.730082      0.93033625   
    402000   1213.7276     -33.95779      -34.89911      -34.89911       0.94131961   
    403000   1191.9229     -33.855191     -34.7796       -34.7796        0.92440874   
    404000   1231.4424     -34.004358     -34.959417     -34.959417      0.95505856   
    405000   1186.5904     -33.986323     -34.906596     -34.906596      0.92027308   
    406000   1233.6691     -33.729152     -34.685938     -34.685938      0.95678551   
    407000   1225.3129     -34.258359     -35.208664     -35.208664      0.9503047    
    408000   1208.1015     -33.780896     -34.717852     -34.717852      0.93695622   
    409000   1209.9232     -33.982402     -34.920771     -34.920771      0.93836912   
    410000   1201.9686     -33.734392     -34.666592     -34.666592      0.93219983   
    411000   1242.2048     -34.016777     -34.980182     -34.980182      0.96340542   
    412000   1232.8285     -34.082085     -35.038218     -35.038218      0.95613358   
    413000   1252.9245     -33.653429     -34.625148     -34.625148      0.97171924   
    414000   1278.5824     -34.250865     -35.242483     -35.242483      0.99161848   
    415000   1234.8058     -33.521108     -34.478775     -34.478775      0.95766705   
    416000   1240.2213     -33.843676     -34.805543     -34.805543      0.96186713   
    417000   1294.0426     -33.630048     -34.633657     -34.633657      1.0036088    
    418000   1236.5005     -33.827112     -34.786093     -34.786093      0.95898141   
    419000   1276.2971     -33.862586     -34.852433     -34.852433      0.98984609   
    420000   1328.4219     -34.101819     -35.132091     -35.132091      1.0302721    
    421000   1311.3953     -33.762183     -34.77925      -34.77925       1.0170669    
    422000   1243.1055     -33.664838     -34.628942     -34.628942      0.96410395   
    423000   1267.7829     -34.109101     -35.092344     -35.092344      0.98324279   
    424000   1261.0657     -33.664199     -34.642232     -34.642232      0.97803321   
    425000   1225.8738     -33.834399     -34.785138     -34.785138      0.95073978   
    426000   1268.1341     -33.723192     -34.706707     -34.706707      0.98351522   
    427000   1329.9985     -33.694998     -34.726493     -34.726493      1.0314948    
    428000   1293.7369     -33.564787     -34.568158     -34.568158      1.0033717    
    429000   1328.5083     -33.911129     -34.941468     -34.941468      1.0303391    
    430000   1277.2259     -33.67788      -34.668447     -34.668447      0.99056642   
    431000   1308.0586     -34.153521     -35.168        -35.168         1.0144791    
    432000   1267.0161     -33.371964     -34.354612     -34.354612      0.98264809   
    433000   1318.4803     -34.284868     -35.30743      -35.30743       1.0225617    
    434000   1172.6705     -33.000159     -33.909637     -33.909637      0.90947733   
    435000   1379.1793     -33.796423     -34.866061     -34.866061      1.0696375    
    436000   1236.7977     -33.534554     -34.493766     -34.493766      0.95921189   
    437000   1333.3589     -33.295822     -34.329923     -34.329923      1.034101     
    438000   1300.5355     -33.448449     -34.457093     -34.457093      1.0086444    
    439000   1350.9154     -33.74978      -34.797497     -34.797497      1.0477171    
    440000   1243.4992     -33.845296     -34.809705     -34.809705      0.96440934   
    441000   1297.0925     -33.126418     -34.132392     -34.132392      1.0059742    
    442000   1299.2326     -34.06187      -35.069504     -35.069504      1.007634     
    443000   1328.6755     -33.588153     -34.618621     -34.618621      1.0304687    
    444000   1361.7709     -33.668397     -34.724533     -34.724533      1.0561363    
    445000   1278.2938     -33.694168     -34.685563     -34.685563      0.99139468   
    446000   1339.054      -33.147198     -34.185716     -34.185716      1.0385179    
    447000   1374.7499     -34.029341     -35.095543     -35.095543      1.0662023    
    448000   1352.0447     -33.257043     -34.305636     -34.305636      1.048593     
    449000   1340.4984     -34.105181     -35.144819     -35.144819      1.0396381    
    450000   1354.5792     -33.142906     -34.193465     -34.193465      1.0505586    
    451000   1340.9515     -33.856064     -34.896054     -34.896054      1.0399895    
    452000   1337.2224     -33.847822     -34.884919     -34.884919      1.0370973    
    453000   1348.4049     -32.930334     -33.976104     -33.976104      1.04577      
    454000   1376.0276     -34.247277     -35.31447      -35.31447       1.0671931    
    455000   1400.8818     -32.82401      -33.910479     -33.910479      1.0864691    
    456000   1456.3819     -33.606812     -34.736324     -34.736324      1.1295128    
    457000   1392.5328     -33.466736     -34.54673      -34.54673       1.079994     
    458000   1381.3214     -32.802455     -33.873754     -33.873754      1.0712989    
    459000   1320.8647     -34.129146     -35.153557     -35.153557      1.024411     
    460000   1314.3382     -32.919577     -33.938926     -33.938926      1.0193493    
    461000   1402.6924     -33.871863     -34.959736     -34.959736      1.0878734    
    462000   1366.3765     -33.252021     -34.311729     -34.311729      1.0597081    
    463000   1361.4924     -33.074944     -34.130864     -34.130864      1.0559202    
    464000   1442.3768     -33.848487     -34.967138     -34.967138      1.118651     
    465000   1358.518      -32.712335     -33.765948     -33.765948      1.0536134    
    466000   1416.4709     -33.47526      -34.573819     -34.573819      1.0985594    
    467000   1388.754      -33.149572     -34.226636     -34.226636      1.0770633    
    468000   1426.7561     -33.965495     -35.072031     -35.072031      1.1065362    
    469000   1423.9876     -33.305705     -34.410095     -34.410095      1.1043891    
    470000   1417.6972     -33.385943     -34.485454     -34.485454      1.0995105    
    471000   1365.0579     -33.919786     -34.978471     -34.978471      1.0586855    
    472000   1401.7861     -32.516597     -33.603768     -33.603768      1.0871704    
    473000   1438.5417     -34.171065     -35.286742     -35.286742      1.1156767    
    474000   1400.9593     -32.842633     -33.929162     -33.929162      1.0865293    
    475000   1409.3558     -33.223804     -34.316845     -34.316845      1.0930412    
    476000   1310.1478     -33.080829     -34.096928     -34.096928      1.0160994    
    477000   1479.2908     -32.53909      -33.68637      -33.68637       1.1472801    
    478000   1394.1899     -34.062701     -35.143981     -35.143981      1.0812791    
    479000   1302.7643     -31.504448     -32.514821     -32.514821      1.010373     
    480000   1446.2762     -33.649471     -34.771146     -34.771146      1.1216752    
    481000   1313.9025     -33.342975     -34.361986     -34.361986      1.0190113    
    482000   1484.4954     -32.819601     -33.970918     -33.970918      1.1513166    
    483000   1451.9313     -34.027728     -35.153789     -35.153789      1.1260611    
    484000   1442.8678     -32.468415     -33.587446     -33.587446      1.1190318    
    485000   1412.1613     -33.609424     -34.704641     -34.704641      1.095217     
    486000   1504.3064     -33.339628     -34.506309     -34.506309      1.1666812    
    487000   1451.6402     -32.498938     -33.624773     -33.624773      1.1258354    
    488000   1484.6624     -34.005407     -35.156853     -35.156853      1.151446     
    489000   1461.827      -33.242522     -34.376258     -34.376258      1.1337358    
    490000   1478.6441     -33.737865     -34.884644     -34.884644      1.1467785    
    491000   1405.7025     -32.726526     -33.816733     -33.816733      1.0902078    
    492000   1440.7829     -33.240632     -34.358046     -34.358046      1.1174148    
    493000   1421.4372     -33.536783     -34.639194     -34.639194      1.1024111    
    494000   1513.7048     -32.849107     -34.023077     -34.023077      1.1739702    
    495000   1646.0318     -32.563903     -33.840501     -33.840501      1.2765978    
    496000   1527.6751     -34.018766     -35.203571     -35.203571      1.184805     
    497000   1528.9653     -33.021322     -34.207127     -34.207127      1.1858057    
    498000   1442.4675     -33.406933     -34.525654     -34.525654      1.1187213    
    499000   1580.9939     -32.900316     -34.126473     -34.126473      1.226157     
    500000   1441.8381     -33.819857     -34.93809      -34.93809       1.1182332    
    501000   1526.6806     -32.2223       -33.406333     -33.406333      1.1840338    
    502000   1566.9696     -33.88971      -35.104991     -35.104991      1.2152803    
    503000   1455.7519     -33.367813     -34.496837     -34.496837      1.1290242    
    504000   1595.3393     -33.018976     -34.256259     -34.256259      1.2372827    
    505000   1523.5487     -34.046434     -35.228039     -35.228039      1.1816048    
    506000   1515.344      -32.731207     -33.906449     -33.906449      1.1752415    
    507000   1501.6407     -33.75319      -34.917803     -34.917803      1.1646138    
    508000   1597.3098     -32.798881     -34.037692     -34.037692      1.238811     
    509000   1535.1315     -33.384893     -34.575481     -34.575481      1.1905879    
    510000   1509.4898     -33.049659     -34.22036      -34.22036       1.1707012    
    511000   1578.0843     -32.842478     -34.066378     -34.066378      1.2239004    
    512000   1509.1891     -33.863669     -35.034137     -35.034137      1.170468     
    513000   1601.1172     -32.360801     -33.602565     -33.602565      1.2417639    
    514000   1532.1301     -33.700061     -34.888321     -34.888321      1.1882601    
    515000   1608.1296     -32.890709     -34.137911     -34.137911      1.2472024    
    516000   1568.1849     -33.494922     -34.711145     -34.711145      1.2162228    
    517000   1622.7407     -33.052689     -34.311224     -34.311224      1.2585342    
    518000   1606.3439     -32.490277     -33.736094     -33.736094      1.2458175    
    519000   1537.9042     -33.942236     -35.134974     -35.134974      1.1927383    
    520000   1589.8849     -32.069478     -33.302531     -33.302531      1.2330525    
    521000   1563.924      -33.544916     -34.757834     -34.757834      1.2129183    
    522000   1461.2381     -32.806955     -33.940235     -33.940235      1.1332791    
    523000   1861.6964     -31.661372     -33.105231     -33.105231      1.4438589    
    524000   1542.5159     -33.914811     -35.111126     -35.111126      1.196315     
    525000   1561.1397     -32.15565      -33.366409     -33.366409      1.2107589    
    526000   1577.4092     -33.8343       -35.057677     -35.057677      1.2233768    
    527000   1637.0143     -32.369265     -33.638869     -33.638869      1.2696042    
    528000   1593.6088     -33.739524     -34.975465     -34.975465      1.2359406    
    529000   1428.6994     -32.901189     -34.009232     -34.009232      1.1080434    
    530000   1575.2409     -32.55434      -33.776035     -33.776035      1.2216952    
    531000   1488.7969     -33.800117     -34.95477      -34.95477       1.1546526    
    532000   1586.4131     -31.814784     -33.045143     -33.045143      1.2303599    
    533000   1616.9074     -34.050112     -35.304122     -35.304122      1.2540101    
    534000   1518.9845     -32.713422     -33.891487     -33.891487      1.178065     
    535000   1679.6161     -33.740498     -35.043143     -35.043143      1.3026446    
    536000   1612.9429     -33.091608     -34.342543     -34.342543      1.2509354    
    537000   1712.5063     -32.40888      -33.737033     -33.737033      1.3281529    
    538000   1654.1915     -33.862241     -35.145167     -35.145167      1.2829262    
    539000   1618.8347     -32.373465     -33.62897      -33.62897       1.2555048    
    540000   1578.4861     -33.614231     -34.838443     -34.838443      1.2242121    
    541000   1583.2622     -33.065834     -34.293751     -34.293751      1.2279162    
    542000   1678.338      -32.379338     -33.680992     -33.680992      1.3016533    
    543000   1587.1197     -33.607907     -34.838815     -34.838815      1.2309079    
    544000   1630.0352     -32.526839     -33.79103      -33.79103       1.2641916    
    545000   1669.9425     -33.633738     -34.92888      -34.92888       1.2951421    
    546000   1604.7071     -32.232491     -33.477039     -33.477039      1.244548     
    547000   1682.9638     -33.825779     -35.13102      -35.13102       1.3052409    
    548000   1615.9529     -32.428469     -33.681739     -33.681739      1.2532698    
    549000   1729.348      -32.667992     -34.009207     -34.009207      1.3412147    
    550000   1601.1852     -33.570432     -34.812248     -34.812248      1.2418166    
    551000   1733.8386     -31.649472     -32.99417      -32.99417       1.3446974    
    552000   1711.8252     -33.559955     -34.88758      -34.88758       1.3276246    
    553000   1637.3597     -32.351961     -33.621833     -33.621833      1.2698721    
    554000   1629.1784     -33.020858     -34.284385     -34.284385      1.263527     
    555000   1609.3153     -33.419024     -34.667146     -34.667146      1.248122     
    556000   1789.4992     -31.741892     -33.129757     -33.129757      1.3878655    
    557000   1696.8554     -33.666078     -34.982093     -34.982093      1.3160147    
    558000   1592.855      -32.940329     -34.175685     -34.175685      1.235356     
    559000   1662.9784     -32.629889     -33.91963      -33.91963       1.289741     
    560000   1753.9672     -33.905696     -35.266004     -35.266004      1.3603083    
    561000   1659.8404     -32.696196     -33.983503     -33.983503      1.2873073    
    562000   1685.6453     -32.941638     -34.248959     -34.248959      1.3073205    
    563000   1675.8515     -33.416725     -34.71645      -34.71645       1.2997249    
    564000   1560.031      -31.228991     -32.43889      -32.43889       1.209899     
    565000   1717.1439     -33.780996     -35.112746     -35.112746      1.3317496    
    566000   1659.7065     -32.107318     -33.394521     -33.394521      1.2872035    
    567000   1778.7762     -32.131903     -33.511453     -33.511453      1.3795492    
    568000   1542.5273     -33.125944     -34.322267     -34.322267      1.1963238    
    569000   1771.7348     -31.886536     -33.260624     -33.260624      1.3740882    
    570000   1813.3945     -33.026759     -34.433157     -34.433157      1.4063978    
    571000   1681.6836     -33.07169      -34.375938     -34.375938      1.304248     
    572000   1734.2183     -33.329401     -34.674393     -34.674393      1.3449919    
    573000   1695.6852     -32.606432     -33.921539     -33.921539      1.3151071    
    574000   1662.3905     -32.418589     -33.707874     -33.707874      1.289285     
    575000   1603.7148     -33.391829     -34.635608     -34.635608      1.2437784    
    576000   1922.1448     -32.667113     -34.157853     -34.157853      1.4907403    
    577000   1707.6768     -33.627855     -34.952262     -34.952262      1.3244073    
    578000   1803.1731     -32.111021     -33.509491     -33.509491      1.3984705    
    579000   1683.2479     -33.381435     -34.686896     -34.686896      1.3054612    
    580000   1765.4564     -33.43829      -34.807509     -34.807509      1.3692189    
    581000   1707.3794     -32.481754     -33.805931     -33.805931      1.3241767    
    582000   1766.4862     -33.695549     -35.065566     -35.065566      1.3700176    
    583000   1709.9295     -32.765286     -34.09144      -34.09144       1.3261544    
    584000   1702.0814     -32.7714       -34.091468     -34.091468      1.3200678    
    585000   1843.3594     -33.597172     -35.02681      -35.02681       1.4296374    
    586000   1887.5645     -32.173842     -33.637763     -33.637763      1.4639212    
    587000   1747.048      -33.634758     -34.9897       -34.9897        1.3549421    
    588000   1798.7084     -32.898066     -34.293074     -34.293074      1.3950078    
    589000   1788.3594     -33.477977     -34.864958     -34.864958      1.3869816    
    590000   1731.3974     -32.265746     -33.60855      -33.60855       1.342804     
    591000   1790.904      -33.16803      -34.556985     -34.556985      1.3889551    
    592000   1678.7306     -32.938979     -34.240937     -34.240937      1.3019577    
    593000   1791.4491     -33.225371     -34.614749     -34.614749      1.3893778    
    594000   1772.1846     -33.292047     -34.666484     -34.666484      1.374437     
    595000   1837.4576     -32.557155     -33.982215     -33.982215      1.4250602    
    596000   1829.5364     -33.467346     -34.886263     -34.886263      1.4189169    
    597000   1840.6908     -32.444014     -33.871582     -33.871582      1.4275677    
    598000   1863.5285     -33.418219     -34.863499     -34.863499      1.4452798    
    599000   1825.3143     -33.036917     -34.45256      -34.45256       1.4156423    
    600000   1729.1844     -32.528243     -33.86933      -33.86933       1.3410877    
    601000   1803.9887     -33.405502     -34.804605     -34.804605      1.399103     
    602000   1754.1399     -32.464071     -33.824513     -33.824513      1.3604423    
    603000   1813.154      -33.164079     -34.57029      -34.57029       1.4062113    
    604000   1828.9371     -33.466533     -34.884985     -34.884985      1.418452     
    605000   1774.5629     -32.417404     -33.793686     -33.793686      1.3762815    
    606000   1890.8092     -33.576693     -35.043131     -35.043131      1.4664376    
    607000   1763.2616     -32.978097     -34.345613     -34.345613      1.3675167    
    608000   1903.7731     -33.190098     -34.66659      -34.66659       1.4764919    
    609000   1854.7672     -33.156566     -34.595051     -34.595051      1.4384848    
    610000   1886.4374     -32.14641      -33.609457     -33.609457      1.463047     
    611000   1886.4046     -33.563202     -35.026224     -35.026224      1.4630216    
    612000   1883.9066     -32.638388     -34.099472     -34.099472      1.4610842    
    613000   1732.6573     -32.760969     -34.10475      -34.10475       1.3437812    
    614000   1837.9403     -33.280609     -34.706044     -34.706044      1.4254345    
    615000   1805.4182     -32.484533     -33.884745     -33.884745      1.4002117    
    616000   1819.627      -33.333462     -34.744693     -34.744693      1.4112315    
    617000   1719.3126     -32.364298     -33.69773      -33.69773       1.3334316    
    618000   1774.4233     -32.967212     -34.343386     -34.343386      1.3761733    
    619000   1739.5517     -32.95625      -34.305379     -34.305379      1.3491283    
    620000   1901.7822     -31.939308     -33.414256     -33.414256      1.4749479    
    621000   1884.3823     -33.424746     -34.886199     -34.886199      1.4614531    
    622000   1809.5795     -32.100883     -33.504322     -33.504322      1.4034391    
    623000   1981.112      -33.448488     -34.98496      -34.98496       1.5364729    
    624000   1843.4298     -31.70295      -33.132642     -33.132642      1.429692     
    625000   1908.4786     -32.289291     -33.769432     -33.769432      1.4801413    
    626000   1882.7696     -33.424894     -34.885096     -34.885096      1.4602024    
    627000   1964.1065     -30.740281     -32.263565     -32.263565      1.5232841    
    628000   1925.5946     -33.391831     -34.885246     -34.885246      1.4934158    
    629000   1847.9322     -32.414256     -33.84744      -33.84744       1.4331839    
    630000   1907.5406     -32.111645     -33.591059     -33.591059      1.4794138    
    631000   1870.1961     -33.744263     -35.194714     -35.194714      1.4504509    
    632000   1905.5899     -32.104553     -33.582454     -33.582454      1.477901     
    633000   1932.3557     -32.330006     -33.828665     -33.828665      1.4986594    
    634000   1975.5202     -32.903749     -34.435885     -34.435885      1.5321361    
    635000   1784.7453     -30.922462     -32.306641     -32.306641      1.3841786    
    636000   1933.8031     -32.947237     -34.447019     -34.447019      1.499782     
    637000   1917.8405     -32.864332     -34.351734     -34.351734      1.487402     
    638000   1996.9439     -31.641892     -33.190644     -33.190644      1.5487516    
    639000   1829.0303     -33.479539     -34.898064     -34.898064      1.4185243    
    640000   1871.5425     -31.225668     -32.677164     -32.677164      1.4514951    
    641000   1949.303      -33.03349      -34.545293     -34.545293      1.5118031    
    642000   1750.1692     -32.684851     -34.042213     -34.042213      1.3573627    
    643000   1987.2949     -32.339501     -33.880769     -33.880769      1.5412682    
    644000   1903.3904     -33.189567     -34.665762     -34.665762      1.4761951    
    645000   2021.7241     -32.282018     -33.849988     -33.849988      1.5679701    
    646000   1921.4914     -33.439242     -34.929476     -34.929476      1.4902335    
    647000   2002.3998     -31.682807     -33.23579      -33.23579       1.5529829    
    648000   2003.963      -31.680251     -33.234446     -33.234446      1.5541953    
    649000   1932.6626     -33.585729     -35.084627     -35.084627      1.4988975    
    650000   1849.5709     -31.508911     -32.943366     -32.943366      1.4344548    
    651000   1977.895      -32.774491     -34.308469     -34.308469      1.533978     
    652000   1947.3725     -32.56349      -34.073796     -34.073796      1.5103059    
    653000   1818.4367     -32.629746     -34.040054     -34.040054      1.4103083    
    654000   1968.2436     -33.528696     -35.055188     -35.055188      1.5264927    
    655000   1908.5457     -31.819565     -33.299758     -33.299758      1.4801934    
    656000   1959.1827     -33.149892     -34.669357     -34.669357      1.5194655    
    657000   1915.0164     -32.163441     -33.648653     -33.648653      1.4852118    
    658000   2047.9006     -32.1606       -33.748872     -33.748872      1.5882715    
    659000   1999.4343     -33.00281      -34.553493     -34.553493      1.550683     
    660000   2048.0742     -33.225086     -34.813492     -34.813492      1.5884062    
    661000   1964.6376     -32.951369     -34.475065     -34.475065      1.523696     
    662000   2072.6804     -32.055221     -33.662711     -33.662711      1.6074898    
    663000   1936.2156     -32.649221     -34.150874     -34.150874      1.501653     
    664000   2133.9193     -31.997344     -33.652328     -33.652328      1.6549843    
    665000   1979.4996     -32.279698     -33.814921     -33.814921      1.5352224    
    666000   1990.762      -32.828028     -34.371985     -34.371985      1.5439571    
    667000   1917.6005     -31.668986     -33.156202     -33.156202      1.4872159    
    668000   2010.6115     -33.744304     -35.303656     -35.303656      1.5593516    
    669000   2068.6167     -30.946093     -32.550431     -32.550431      1.6043382    
    670000   2050.578      -32.516041     -34.106389     -34.106389      1.590348     
    671000   1893.2113     -32.677076     -34.145377     -34.145377      1.4683006    
    672000   1967.0034     -31.569945     -33.095476     -33.095476      1.5255309    
    673000   2008.6375     -33.295701     -34.853522     -34.853522      1.5578206    
    674000   1959.2751     -32.481844     -34.001382     -34.001382      1.5195371    
    675000   2054.7431     -32.661154     -34.254733     -34.254733      1.5935784    
    676000   2000.6518     -32.716007     -34.267634     -34.267634      1.5516273    
    677000   2003.8409     -31.048649     -32.60275      -32.60275       1.5541006    
    678000   1972.1523     -33.691564     -35.221088     -35.221088      1.5295242    
    679000   2044.2955     -31.717311     -33.302786     -33.302786      1.5854756    
    680000   2116.752      -32.148493     -33.790163     -33.790163      1.64167      
    681000   2040.4375     -32.984567     -34.567051     -34.567051      1.5824835    
    682000   1926.4015     -30.2437       -31.737742     -31.737742      1.4940416    
    683000   1948.6592     -33.145359     -34.656663     -34.656663      1.5113039    
    684000   1998.6437     -31.645273     -33.195342     -33.195342      1.5500699    
    685000   2056.0306     -32.184137     -33.778713     -33.778713      1.5945769    
    686000   2090.2145     -32.663701     -34.284789     -34.284789      1.6210886    
    687000   2161.3543     -31.642045     -33.318307     -33.318307      1.6762618    
    688000   2102.8765     -32.897981     -34.528889     -34.528889      1.6309087    
    689000   1975.485      -31.560085     -33.092194     -33.092194      1.5321088    
    690000   2175.9222     -32.408639     -34.096199     -34.096199      1.6875601    
    691000   2132.8525     -32.966258     -34.620415     -34.620415      1.6541569    
    692000   2103.3186     -31.312264     -32.943515     -32.943515      1.6312516    
    693000   2052.4951     -33.57231      -35.164145     -35.164145      1.5918349    
    694000   2023.9927     -30.377651     -31.94738      -31.94738       1.5697295    
    695000   2096.1575     -32.140839     -33.766537     -33.766537      1.6256977    
    696000   2145.6927     -32.674292     -34.338407     -34.338407      1.6641153    
    697000   2003.5494     -31.104921     -32.658795     -32.658795      1.5538745    
    698000   2158.5726     -32.738894     -34.412998     -34.412998      1.6741044    
    699000   2103.0701     -32.195848     -33.826907     -33.826907      1.6310589    
    700000   2051.2539     -32.069525     -33.660398     -33.660398      1.5908723    
    701000   2146.8865     -31.952441     -33.617482     -33.617482      1.6650411    
    702000   2072.2437     -31.152621     -32.759772     -32.759772      1.6071511    
    703000   2148.9739     -33.051566     -34.718227     -34.718227      1.6666601    
    704000   2141.6676     -31.12052      -32.781514     -32.781514      1.6609936    
    705000   2017.465      -32.219738     -33.784405     -33.784405      1.5646669    
    706000   2175.7794     -32.994882     -34.682331     -34.682331      1.6874494    
    707000   2053.0104     -31.419973     -33.012207     -33.012207      1.5922345    
    708000   2093.9613     -33.228155     -34.85215      -34.85215       1.6239944    
    709000   2069.0944     -32.225836     -33.830545     -33.830545      1.6047087    
    710000   2343.2993     -31.74901      -33.566381     -33.566381      1.8173712    
    711000   2094.7572     -33.491287     -35.115899     -35.115899      1.6246117    
    712000   2145.7431     -30.96337      -32.627524     -32.627524      1.6641544    
    713000   2097.0838     -32.4924       -34.118816     -34.118816      1.6264161    
    714000   2102.2922     -33.015282     -34.645737     -34.645737      1.6304555    
    715000   2153.5506     -30.746396     -32.416606     -32.416606      1.6702096    
    716000   2130.0086     -33.708707     -35.360659     -35.360659      1.6519513    
    717000   2080.9645     -31.231951     -32.845866     -32.845866      1.6139146    
    718000   2170.7444     -32.371553     -34.055098     -34.055098      1.6835444    
    719000   2171.5193     -33.128825     -34.81297      -34.81297       1.6841454    
    720000   2133.3664     -31.052806     -32.707361     -32.707361      1.6545555    
    721000   2215.9608     -33.280618     -34.99923      -34.99923       1.7186125    
    722000   2043.507      -31.602412     -33.187276     -33.187276      1.5848641    
    723000   2448.668      -31.648225     -33.547316     -33.547316      1.8990911    
    724000   2114.5323     -33.413562     -35.05351      -35.05351       1.6399485    
    725000   1954.7607     -29.774032     -31.290068     -31.290068      1.5160359    
    726000   2134.5135     -32.704073     -34.359518     -34.359518      1.6554452    
    727000   2058.0849     -32.685228     -34.281398     -34.281398      1.5961701    
    728000   2428.5601     -30.225157     -32.108653     -32.108653      1.8834962    
    729000   2108.3382     -33.563574     -35.198719     -35.198719      1.6351446    
    730000   2313.9041     -31.800431     -33.595004     -33.595004      1.7945735    
    731000   2182.6883     -32.118513     -33.811321     -33.811321      1.6928077    
    732000   2168.2972     -32.964749     -34.646396     -34.646396      1.6816465    
    733000   2200.5494     -30.911058     -32.617718     -32.617718      1.70666      
    734000   2146.2769     -32.566924     -34.231492     -34.231492      1.6645684    
    735000   2291.6103     -31.350279     -33.127562     -33.127562      1.7772833    
    736000   2167.2956     -32.453445     -34.134315     -34.134315      1.6808696    
    737000   2100.998      -32.604444     -34.233896     -34.233896      1.6294518    
    738000   2224.6949     -32.312628     -34.038015     -34.038015      1.7253863    
    739000   2351.992      -32.707759     -34.531872     -34.531872      1.8241129    
    740000   2324.1522     -32.295991     -34.098512     -34.098512      1.8025215    
    741000   2168.7278     -31.863398     -33.545378     -33.545378      1.6819804    
    742000   2280.7009     -32.270481     -34.039304     -34.039304      1.7688224    
    743000   2201.612      -32.032929     -33.740414     -33.740414      1.7074842    
    744000   2196.6769     -32.652625     -34.356282     -34.356282      1.7036567    
    745000   2141.7722     -31.72581      -33.386885     -33.386885      1.6610747    
    746000   2170.0672     -32.345296     -34.028316     -34.028316      1.6830192    
    747000   2178.4802     -32.195911     -33.885455     -33.885455      1.689544     
    748000   2141.8401     -32.148263     -33.809391     -33.809391      1.6611274    
    749000   2208.2271     -32.752038     -34.464652     -34.464652      1.7126145    
    750000   2188.9856     -30.91886      -32.616552     -32.616552      1.6976916    
    751000   2226.5672     -33.141319     -34.868157     -34.868157      1.7268384    
    752000   2278.993      -31.645452     -33.412949     -33.412949      1.7674978    
    753000   2287.3242     -32.084622     -33.858581     -33.858581      1.7739592    
    754000   2095.2829     -32.872891     -34.497911     -34.497911      1.6250194    
    755000   2189.7755     -29.954712     -31.653016     -31.653016      1.6983042    
    756000   2215.4156     -32.868278     -34.586468     -34.586468      1.7181896    
    757000   2235.3214     -32.188198     -33.921825     -33.921825      1.7336278    
    758000   2330.135      -32.231388     -34.038549     -34.038549      1.8071615    
    759000   2199.4132     -32.869388     -34.575167     -34.575167      1.7057788    
    760000   2343.8713     -31.519659     -33.337474     -33.337474      1.8178148    
    761000   2304.2519     -33.243607     -35.030694     -35.030694      1.7870876    
    762000   2299.2809     -30.540127     -32.323359     -32.323359      1.7832323    
    763000   2456.7754     -32.711802     -34.617181     -34.617181      1.9053789    
    764000   2503.4797     -31.964042     -33.905643     -33.905643      1.9416009    
    765000   2219.2546     -31.528424     -33.249591     -33.249591      1.721167     
    766000   2258.2854     -33.350671     -35.102109     -35.102109      1.7514378    
    767000   2271.6703     -30.42218      -32.183998     -32.183998      1.7618186    
    768000   2221.3499     -32.698131     -34.420923     -34.420923      1.7227921    
    769000   2226.0578     -31.976371     -33.702814     -33.702814      1.7264433    
    770000   2476.1272     -31.603649     -33.524036     -33.524036      1.9203873    
    771000   2370.5016     -32.813356     -34.651824     -34.651824      1.8384683    
    772000   2373.9414     -30.991343     -32.832479     -32.832479      1.8411361    
    773000   2453.3526     -32.517693     -34.420418     -34.420418      1.9027243    
    774000   2275.5778     -32.03289      -33.797739     -33.797739      1.7648491    
    775000   2652.8517     -31.542241     -33.599689     -33.599689      2.057448     
    776000   2273.2806     -32.888613     -34.651681     -34.651681      1.7630675    
    777000   2308.7688     -31.695191     -33.485782     -33.485782      1.7905907    
    778000   2456.6052     -32.375763     -34.281009     -34.281009      1.9052468    
    779000   2308.223      -32.462561     -34.252729     -34.252729      1.7901674    
    780000   2386.3419     -30.866297     -32.71705      -32.71705       1.8507534    
    781000   2307.649      -33.399561     -35.189283     -35.189283      1.7897223    
    782000   2314.4725     -31.483991     -33.279005     -33.279005      1.7950143    
    783000   2254.2188     -32.213042     -33.961326     -33.961326      1.7482839    
    784000   2279.2029     -32.368759     -34.136419     -34.136419      1.7676606    
    785000   2304.8503     -32.171449     -33.959001     -33.959001      1.7875517    
    786000   2355.046      -32.723128     -34.54961      -34.54961       1.8264816    
    787000   2335.0534     -32.367812     -34.178789     -34.178789      1.8109761    
    788000   2441.9021     -32.752069     -34.645912     -34.645912      1.8938437    
    789000   2280.4466     -32.133234     -33.90186      -33.90186       1.7686251    
    790000   2445.4499     -32.036893     -33.933488     -33.933488      1.8965953    
    791000   2450.6182     -32.518246     -34.41885      -34.41885       1.9006036    
    792000   2307.7946     -31.929376     -33.719211     -33.719211      1.7898352    
    793000   2327.9043     -32.630784     -34.436215     -34.436215      1.8054315    
    794000   2422.8218     -31.666778     -33.545824     -33.545824      1.8790458    
    795000   2336.5086     -32.24804      -34.060145     -34.060145      1.8121046    
    796000   2269.5255     -32.030322     -33.790477     -33.790477      1.7601552    
    797000   2367.4692     -32.249291     -34.085407     -34.085407      1.8361165    
    798000   2455.0635     -32.052883     -33.956934     -33.956934      1.9040512    
    799000   2294.986      -32.53132      -34.311221     -34.311221      1.7799013    
    800000   2425.0733     -32.111377     -33.992169     -33.992169      1.880792     
    801000   2378.9151     -32.575131     -34.420124     -34.420124      1.8449935    
    802000   2311.2147     -32.139065     -33.931553     -33.931553      1.7924877    
    803000   2420.1507     -32.411629     -34.288603     -34.288603      1.8769742    
    804000   2377.3548     -32.382308     -34.226091     -34.226091      1.8437834    
    805000   2388.2234     -32.556858     -34.409071     -34.409071      1.8522126    
    806000   2413.5501     -32.434405     -34.30626      -34.30626       1.871855     
    807000   2364.0692     -31.70599      -33.53947      -33.53947       1.8334795    
    808000   2533.7715     -32.592246     -34.55734      -34.55734       1.965094     
    809000   2496.344      -32.477736     -34.413803     -34.413803      1.9360667    
    810000   2400.3091     -32.502557     -34.364143     -34.364143      1.8615858    
    811000   2315.5183     -31.698544     -33.494369     -33.494369      1.7958254    
    812000   2484.5679     -31.1493       -33.076234     -33.076234      1.9269336    
    813000   2488.3628     -32.144006     -34.073883     -34.073883      1.9298768    
    814000   2588.2088     -31.811964     -33.819278     -33.819278      2.0073134    
    815000   2370.6649     -32.314559     -34.153154     -34.153154      1.838595     
    816000   2488.6528     -30.968977     -32.899079     -32.899079      1.9301017    
    817000   2481.117      -32.514189     -34.438447     -34.438447      1.9242573    
    818000   2545.2843     -31.418539     -33.392562     -33.392562      1.9740229    
    819000   2549.054      -31.94808      -33.925026     -33.925026      1.9769465    
    820000   2369.9446     -32.827747     -34.665783     -34.665783      1.8380363    
    821000   2473.3354     -31.838932     -33.757154     -33.757154      1.9182221    
    822000   2472.405      -32.739097     -34.656597     -34.656597      1.9175006    
    823000   2419.0554     -32.031135     -33.90726      -33.90726       1.8761247    
    824000   2423.7081     -31.980063     -33.859796     -33.859796      1.8797332    
    825000   2324.3438     -32.562153     -34.364823     -34.364823      1.8026701    
    826000   2569.0422     -31.803489     -33.795938     -33.795938      1.9924486    
    827000   2450.5501     -33.19744      -35.097991     -35.097991      1.9005508    
    828000   2526.8496     -31.437989     -33.397715     -33.397715      1.9597256    
    829000   2522.7321     -32.714        -34.670532     -34.670532      1.9565323    
    830000   2476.847      -31.937013     -33.857958     -33.857958      1.9209456    
    831000   2600.0395     -30.950193     -32.966682     -32.966682      2.0164889    
    832000   2543.1285     -32.236716     -34.209067     -34.209067      1.972351     
    833000   2409.949      -31.968706     -33.837768     -33.837768      1.8690621    
    834000   2495.2284     -32.830514     -34.765716     -34.765716      1.9352015    
    835000   2482.2037     -31.232637     -33.157737     -33.157737      1.9251001    
    836000   2528.9124     -32.719277     -34.680602     -34.680602      1.9613255    
    837000   2569.7434     -32.045634     -34.038627     -34.038627      1.9929924    
    838000   2583.4899     -32.100377     -34.104031     -34.104031      2.0036537    
    839000   2513.1629     -32.340661     -34.289772     -34.289772      1.9491108    
    840000   2619.4152     -31.544748     -33.576264     -33.576264      2.0315159    
    841000   2510.4863     -32.736839     -34.683874     -34.683874      1.9470349    
    842000   2488.5723     -30.833515     -32.763555     -32.763555      1.9300393    
    843000   2538.7435     -32.868569     -34.837519     -34.837519      1.9689501    
    844000   2506.2406     -31.999142     -33.942884     -33.942884      1.9437422    
    845000   2476.871      -32.044952     -33.965916     -33.965916      1.9209642    
    846000   2480.9628     -31.888306     -33.812444     -33.812444      1.9241377    
    847000   2673.1769     -31.771036     -33.844247     -33.844247      2.0732114    
    848000   2550.8283     -31.808531     -33.786854     -33.786854      1.9783226    
    849000   2530.3242     -31.455897     -33.418317     -33.418317      1.9624205    
    850000   2571.4689     -32.381385     -34.375716     -34.375716      1.9943307    
    851000   2579.6645     -32.136692     -34.137378     -34.137378      2.0006868    
    852000   2494.9804     -32.619359     -34.554369     -34.554369      1.9350092    
    853000   2548.3002     -31.672696     -33.649058     -33.649058      1.9763619    
    854000   2643.8407     -32.225435     -34.275895     -34.275895      2.0504594    
    855000   2570.8702     -32.480871     -34.474737     -34.474737      1.9938663    
    856000   2508.5373     -32.42289      -34.368413     -34.368413      1.9455234    
    857000   2588.1591     -32.282489     -34.289764     -34.289764      2.0072749    
    858000   2576.1237     -32.249009     -34.24695      -34.24695       1.9979407    
    859000   2704.2221     -31.909468     -34.006757     -34.006757      2.0972889    
    860000   2636.554      -32.229644     -34.274452     -34.274452      2.0448081    
    861000   2754.5193     -32.609911     -34.746208     -34.746208      2.1362974    
[...]
   1890000   626.56547     -36.549596     -37.035536     -37.035536      0.48593966   
   1891000   632.84452     -36.552541     -37.043351     -37.043351      0.49080945   
   1892000   627.70425     -36.596147     -37.08297      -37.08297       0.48682285   
   1893000   628.42637     -36.56723      -37.054613     -37.054613      0.4873829    
   1894000   624.19969     -36.5965       -37.080605     -37.080605      0.48410486   
   1895000   610.67492     -36.608443     -37.082058     -37.082058      0.47361558   
   1896000   607.40959     -36.569709     -37.040792     -37.040792      0.47108311   
   1897000   601.81667     -36.550305     -37.01705      -37.01705       0.46674546   
   1898000   609.21378     -36.5525       -37.024982     -37.024982      0.47248237   
   1899000   610.39259     -36.567389     -37.040785     -37.040785      0.4733966    
   1900000   604.70994     -36.618699     -37.087689     -37.087689      0.46898936   
   1901000   601.25685     -36.636306     -37.102617     -37.102617      0.46631129   
   1902000   591.48327     -36.63509      -37.093822     -37.093822      0.45873128   
   1903000   596.12908     -36.618645     -37.080979     -37.080979      0.46233439   
   1904000   594.32377     -36.665461     -37.126395     -37.126395      0.46093426   
   1905000   576.6422      -36.68397      -37.131191     -37.131191      0.44722112   
   1906000   574.24049     -36.653709     -37.099067     -37.099067      0.44535845   
   1907000   566.92499     -36.613517     -37.053202     -37.053202      0.43968484   
   1908000   565.79859     -36.602722     -37.041533     -37.041533      0.43881125   
   1909000   567.65782     -36.63841      -37.078663     -37.078663      0.44025319   
   1910000   557.79051     -36.632037     -37.064637     -37.064637      0.43260049   
   1911000   562.40925     -36.638036     -37.074219     -37.074219      0.43618261   
   1912000   558.03794     -36.634757     -37.067549     -37.067549      0.43279239   
   1913000   552.94666     -36.596698     -37.025541     -37.025541      0.42884379   
   1914000   559.02893     -36.629289     -37.06285      -37.06285       0.43356097   
   1915000   548.69991     -36.660695     -37.086245     -37.086245      0.42555018   
   1916000   547.00065     -36.628224     -37.052456     -37.052456      0.4242323    
   1917000   545.73691     -36.61108      -37.034332     -37.034332      0.4232522    
   1918000   546.70207     -36.652347     -37.076347     -37.076347      0.42400073   
   1919000   541.38071     -36.677504     -37.097378     -37.097378      0.41987369   
   1920000   533.49017     -36.69606      -37.109814     -37.109814      0.4137541    
   1921000   530.38946     -36.70488      -37.116229     -37.116229      0.41134931   
   1922000   528.93389     -36.67842      -37.088641     -37.088641      0.41022043   
   1923000   529.87316     -36.66691      -37.077859     -37.077859      0.41094889   
   1924000   530.06964     -36.677929     -37.089031     -37.089031      0.41110127   
   1925000   534.01961     -36.693009     -37.107174     -37.107174      0.41416472   
   1926000   530.44065     -36.716946     -37.128335     -37.128335      0.41138901   
   1927000   528.37279     -36.746355     -37.15614      -37.15614       0.40978526   
   1928000   518.92073     -36.733315     -37.135769     -37.135769      0.40245461   
   1929000   513.07627     -36.689035     -37.086957     -37.086957      0.39792188   
   1930000   517.1136      -36.657977     -37.05903      -37.05903       0.40105308   
   1931000   507.56779     -36.696062     -37.089712     -37.089712      0.39364972   
   1932000   502.35391     -36.713225     -37.102831     -37.102831      0.38960604   
   1933000   501.92754     -36.711367     -37.100642     -37.100642      0.38927536   
   1934000   502.9239      -36.70843      -37.098478     -37.098478      0.3900481    
   1935000   501.98326     -36.723336     -37.112655     -37.112655      0.38931858   
   1936000   492.64481     -36.75413      -37.136206     -37.136206      0.38207603   
   1937000   491.93926     -36.738177     -37.119706     -37.119706      0.38152884   
   1938000   488.60471     -36.721708     -37.100651     -37.100651      0.3789427    
   1939000   477.77344     -36.68386      -37.054403     -37.054403      0.37054239   
   1940000   485.61113     -36.674955     -37.051576     -37.051576      0.37662099   
   1941000   466.91134     -36.733215     -37.095334     -37.095334      0.36211816   
   1942000   472.68852     -36.758004     -37.124603     -37.124603      0.36659872   
   1943000   466.12846     -36.750465     -37.111976     -37.111976      0.36151099   
   1944000   464.9002      -36.756142     -37.1167       -37.1167        0.36055841   
   1945000   462.08497     -36.810861     -37.169236     -37.169236      0.35837502   
   1946000   474.32717     -36.808411     -37.17628      -37.17628       0.36786959   
   1947000   462.184       -36.777047     -37.135499     -37.135499      0.35845182   
   1948000   456.18027     -36.752655     -37.10645      -37.10645       0.35379556   
   1949000   453.18        -36.769304     -37.120773     -37.120773      0.35146868   
   1950000   450.70294     -36.788835     -37.138382     -37.138382      0.34954756   
   1951000   445.46783     -36.806836     -37.152323     -37.152323      0.34548742   
   1952000   446.25861     -36.813328     -37.159429     -37.159429      0.34610072   
   1953000   436.51208     -36.824683     -37.163224     -37.163224      0.33854169   
   1954000   440.97472     -36.807001     -37.149004     -37.149004      0.34200274   
   1955000   439.39174     -36.775088     -37.115863     -37.115863      0.34077504   
   1956000   429.01608     -36.777532     -37.11026      -37.11026       0.33272808   
   1957000   421.45083     -36.818327     -37.145188     -37.145188      0.32686077   
   1958000   422.821       -36.872524     -37.200448     -37.200448      0.32792342   
   1959000   427.38189     -36.85969      -37.191151     -37.191151      0.33146067   
   1960000   423.44527     -36.866918     -37.195325     -37.195325      0.32840758   
   1961000   415.62505     -36.850249     -37.172592     -37.172592      0.32234252   
   1962000   423.00088     -36.800116     -37.128179     -37.128179      0.32806293   
   1963000   400.42015     -36.780568     -37.091118     -37.091118      0.3105502    
   1964000   400.73873     -36.833559     -37.144356     -37.144356      0.31079728   
   1965000   407.59591     -36.88267      -37.198785     -37.198785      0.31611544   
   1966000   402.44662     -36.86874      -37.180862     -37.180862      0.31212185   
   1967000   399.67922     -36.895182     -37.205157     -37.205157      0.30997556   
   1968000   395.79441     -36.879675     -37.186637     -37.186637      0.30696265   
   1969000   395.15068     -36.867677     -37.174141     -37.174141      0.30646341   
   1970000   389.58285     -36.85998      -37.162125     -37.162125      0.30214521   
   1971000   378.869       -36.873838     -37.167674     -37.167674      0.29383597   
   1972000   380.86303     -36.911265     -37.206648     -37.206648      0.29538247   
   1973000   388.41222     -36.907382     -37.208619     -37.208619      0.30123732   
   1974000   382.79076     -36.86613      -37.163007     -37.163007      0.29687754   
   1975000   380.20782     -36.893962     -37.188837     -37.188837      0.29487431   
   1976000   380.71367     -36.887136     -37.182403     -37.182403      0.29526662   
   1977000   365.65586     -36.864169     -37.147758     -37.147758      0.28358838   
   1978000   359.81311     -36.915473     -37.19453      -37.19453       0.27905697   
   1979000   370.46183     -36.946218     -37.233534     -37.233534      0.2873157    
   1980000   362.47722     -36.914076     -37.1952       -37.1952        0.28112315   
   1981000   358.63759     -36.928281     -37.206426     -37.206426      0.27814528   
   1982000   356.52586     -36.893238     -37.169745     -37.169745      0.27650751   
   1983000   340.75608     -36.895279     -37.159556     -37.159556      0.26427708   
   1984000   348.15164     -36.955618     -37.225631     -37.225631      0.27001279   
   1985000   348.82027     -36.927084     -37.197615     -37.197615      0.27053135   
   1986000   336.42075     -36.91608      -37.176995     -37.176995      0.26091477   
   1987000   345.78283     -36.924735     -37.192911     -37.192911      0.26817563   
   1988000   334.52991     -36.931155     -37.190603     -37.190603      0.25944831   
   1989000   327.02867     -36.968972     -37.222602     -37.222602      0.25363064   
   1990000   333.93444     -36.971375     -37.230362     -37.230362      0.25898649   
   1991000   326.20195     -36.949188     -37.202178     -37.202178      0.25298947   
   1992000   324.43863     -36.964215     -37.215836     -37.215836      0.25162191   
   1993000   326.71404     -36.961823     -37.215209     -37.215209      0.25338663   
   1994000   316.80216     -36.960977     -37.206676     -37.206676      0.24569936   
   1995000   314.06878     -36.988299     -37.231879     -37.231879      0.24357946   
   1996000   313.62718     -36.999759     -37.242996     -37.242996      0.24323697   
   1997000   304.67596     -36.970872     -37.207166     -37.207166      0.23629475   
   1998000   305.75226     -36.994317     -37.231446     -37.231446      0.23712949   
   1999000   309.88529     -36.996608     -37.236943     -37.236943      0.24033491   
   2000000   297.27976     -36.960216     -37.190774     -37.190774      0.23055855   
   2001000   294.55153     -36.998384     -37.226827     -37.226827      0.22844264   
   2002000   304.7037      -36.97603      -37.212346     -37.212346      0.23631627   
   2003000   291.55294     -37.021061     -37.247178     -37.247178      0.22611705   
   2004000   291.22999     -37.03344      -37.259307     -37.259307      0.22586658   
   2005000   289.67231     -37.015942     -37.240601     -37.240601      0.22465851   
   2006000   282.47227     -37.038473     -37.257547     -37.257547      0.21907444   
   2007000   277.24361     -37.078381     -37.2934       -37.2934        0.21501929   
   2008000   274.05715     -37.037569     -37.250117     -37.250117      0.212548     
   2009000   278.19804     -37.018766     -37.234525     -37.234525      0.21575951   
   2010000   276.61017     -37.04192      -37.256448     -37.256448      0.21452803   
   2011000   267.38423     -37.024111     -37.231483     -37.231483      0.20737274   
   2012000   263.49964     -37.004421     -37.208781     -37.208781      0.20436001   
   2013000   261.55096     -37.037268     -37.240116     -37.240116      0.20284869   
   2014000   258.13424     -37.084912     -37.285111     -37.285111      0.20019882   
   2015000   255.56277     -37.060368     -37.258572     -37.258572      0.19820448   
   2016000   252.53976     -37.126197     -37.322057     -37.322057      0.19585996   
   2017000   248.5299      -37.107115     -37.299865     -37.299865      0.19275007   
   2018000   251.22713     -37.012834     -37.207676     -37.207676      0.19484193   
   2019000   252.12892     -37.047823     -37.243365     -37.243365      0.19554133   
   2020000   245.69496     -37.060037     -37.250588     -37.250588      0.1905514    
   2021000   238.6553      -37.086084     -37.271176     -37.271176      0.18509172   
   2022000   234.54645     -37.120981     -37.302886     -37.302886      0.18190505   
   2023000   240.70811     -37.108919     -37.295603     -37.295603      0.18668379   
   2024000   234.96691     -37.074489     -37.25672      -37.25672       0.18223114   
   2025000   226.67885     -37.165421     -37.341224     -37.341224      0.17580325   
   2026000   222.76619     -37.13475      -37.307519     -37.307519      0.17276874   
   2027000   213.28144     -37.109015     -37.274428     -37.274428      0.16541274   
   2028000   211.54206     -37.112018     -37.276082     -37.276082      0.16406374   
   2029000   204.62123     -37.119661     -37.278357     -37.278357      0.15869622   
   2030000   207.11601     -37.156149     -37.31678      -37.31678       0.16063108   
   2031000   210.78759     -37.1779       -37.341379     -37.341379      0.16347861   
   2032000   202.21582     -37.197656     -37.354486     -37.354486      0.15683068   
   2033000   203.01868     -37.10024      -37.257693     -37.257693      0.15745334   
   2034000   193.0835      -37.096652     -37.2464       -37.2464        0.14974801   
   2035000   200.49158     -37.135841     -37.291335     -37.291335      0.15549342   
   2036000   191.39018     -37.178601     -37.327036     -37.327036      0.14843474   
   2037000   193.85596     -37.216828     -37.367175     -37.367175      0.15034709   
   2038000   177.32746     -37.171927     -37.309456     -37.309456      0.13752824   
   2039000   185.31271     -37.178679     -37.3224       -37.3224        0.14372129   
   2040000   178.20347     -37.141427     -37.279635     -37.279635      0.13820764   
   2041000   179.61027     -37.177406     -37.316705     -37.316705      0.1392987    
   2042000   176.20276     -37.160341     -37.296997     -37.296997      0.13665597   
   2043000   168.86047     -37.201822     -37.332783     -37.332783      0.13096157   
   2044000   172.09413     -37.205571     -37.339041     -37.339041      0.13346947   
   2045000   165.58734     -37.226607     -37.35503      -37.35503       0.12842306   
   2046000   169.10504     -37.216603     -37.347754     -37.347754      0.13115125   
   2047000   157.59157     -37.215997     -37.338219     -37.338219      0.12222186   
   2048000   157.23464     -37.223564     -37.345509     -37.345509      0.12194504   
   2049000   153.26202     -37.223113     -37.341977     -37.341977      0.11886402   
   2050000   149.5459      -37.233644     -37.349626     -37.349626      0.11598195   
   2051000   150.36827     -37.233593     -37.350213     -37.350213      0.11661975   
   2052000   142.52383     -37.246567     -37.357103     -37.357103      0.11053591   
   2053000   142.86574     -37.25728      -37.368081     -37.368081      0.11080108   
   2054000   138.18147     -37.258016     -37.365184     -37.365184      0.10716814   
   2055000   135.24638     -37.253913     -37.358804     -37.358804      0.1048918    
   2056000   133.19803     -37.249748     -37.353051     -37.353051      0.10330318   
   2057000   125.73879     -37.259351     -37.356869     -37.356869      0.097518083  
   2058000   128.30915     -37.274815     -37.374326     -37.374326      0.099511554  
   2059000   122.75145     -37.279547     -37.374749     -37.374749      0.09520122   
   2060000   119.77805     -37.286187     -37.379082     -37.379082      0.092895166  
   2061000   116.57157     -37.276332     -37.366741     -37.366741      0.09040835   
   2062000   113.13886     -37.283797     -37.371543     -37.371543      0.087746074  
   2063000   110.4004      -37.285181     -37.370803     -37.370803      0.085622227  
   2064000   108.0867      -37.301098     -37.384926     -37.384926      0.083827816  
   2065000   104.52837     -37.302466     -37.383534     -37.383534      0.081068112  
   2066000   101.60462     -37.30643      -37.385231     -37.385231      0.07880057   
   2067000   100.23112     -37.304942     -37.382677     -37.382677      0.077735335  
   2068000   95.268321     -37.313574     -37.387461     -37.387461      0.073886382  
   2069000   93.385656     -37.316181     -37.388607     -37.388607      0.072426261  
   2070000   90.572608     -37.325438     -37.395683     -37.395683      0.070244571  
   2071000   87.886019     -37.326751     -37.394912     -37.394912      0.068160957  
   2072000   84.81716      -37.332881     -37.398662     -37.398662      0.06578087   
   2073000   81.939963     -37.336126     -37.399675     -37.399675      0.063549429  
   2074000   77.553992     -37.341296     -37.401444     -37.401444      0.060147842  
   2075000   75.669498     -37.347342     -37.406028     -37.406028      0.058686302  
   2076000   72.146262     -37.351364     -37.407318     -37.407318      0.055953817  
   2077000   69.243322     -37.352786     -37.406489     -37.406489      0.053702411  
   2078000   66.622647     -37.361779     -37.413449     -37.413449      0.051669918  
   2079000   62.788374     -37.364832     -37.413529     -37.413529      0.048696206  
   2080000   59.610395     -37.367315     -37.413547     -37.413547      0.04623149   
   2081000   57.092292     -37.373964     -37.418243     -37.418243      0.044278547  
   2082000   53.983684     -37.375961     -37.417828     -37.417828      0.041867633  
   2083000   51.287237     -37.378743     -37.418519     -37.418519      0.039776374  
   2084000   48.276739     -37.38718      -37.424622     -37.424622      0.037441549  
   2085000   45.272421     -37.390213     -37.425325     -37.425325      0.035111518  
   2086000   42.202365     -37.391765     -37.424495     -37.424495      0.032730503  
   2087000   39.500806     -37.399671     -37.430306     -37.430306      0.03063528   
   2088000   36.05359      -37.404854     -37.432815     -37.432815      0.027961754  
   2089000   33.163004     -37.406582     -37.432302     -37.432302      0.025719928  
   2090000   30.233696     -37.411466     -37.434914     -37.434914      0.023448071  
   2091000   26.98285      -37.415857     -37.436784     -37.436784      0.020926842  
   2092000   24.1868       -37.419964     -37.438723     -37.438723      0.018758335  
   2093000   21.209682     -37.42428      -37.44073      -37.44073       0.016449399  
   2094000   18.180574     -37.428635     -37.442735     -37.442735      0.014100142  
   2095000   15.20682      -37.431717     -37.443511     -37.443511      0.011793815  
   2096000   12.202655     -37.436857     -37.446321     -37.446321      0.0094639014 
   2097000   9.1233178     -37.440126     -37.447202     -37.447202      0.0070756883 
   2098000   6.1791525     -37.443722     -37.448514     -37.448514      0.0047923089 
   2099000   3.1696893     -37.447074     -37.449532     -37.449532      0.002458287  
   2100000   0.16273835    -37.450079     -37.450206     -37.450206      0.0001262135 
   2100043   0.033874866   -37.450204     -37.450231     -37.450231      2.627202e-05 
Loop time of 6.46268 on 1 procs for 1000000 steps with 7 atoms

Performance: 1336.908 ns/day, 0.018 hours/ns, 154734.684 timesteps/s, 1.083 Matom-step/s
97.9% CPU use with 1 MPI tasks x 1 OpenMP threads

MPI task timing breakdown:
Section |  min time  |  avg time  |  max time  |%varavg| %total
---------------------------------------------------------------
Pair    | 4.7297     | 4.7297     | 4.7297     |   0.0 | 73.18
Neigh   | 0.18509    | 0.18509    | 0.18509    |   0.0 |  2.86
Comm    | 0.22258    | 0.22258    | 0.22258    |   0.0 |  3.44
Output  | 0.17937    | 0.17937    | 0.17937    |   0.0 |  2.78
Modify  | 0.91365    | 0.91365    | 0.91365    |   0.0 | 14.14
Other   |            | 0.2323     |            |       |  3.59

Nlocal:              7 ave           7 max           7 min
Histogram: 1 0 0 0 0 0 0 0 0 0
Nghost:             31 ave          31 max          31 min
Histogram: 1 0 0 0 0 0 0 0 0 0
Neighs:              0 ave           0 max           0 min
Histogram: 1 0 0 0 0 0 0 0 0 0
FullNghs:           42 ave          42 max          42 min
Histogram: 1 0 0 0 0 0 0 0 0 0

Total # of neighbors = 42
Ave neighs/atom = 6
Neighbor list builds = 13800
Dangerous builds = 0
write_restart 	./endconf/endconf*3.restart
System init for write_restart ...

Total wall time: 0:00:14
