LAMMPS (7 Feb 2024 - Update 1)
OMP_NUM_THREADS environment is not set. Defaulting to 1 thread. (src/comm.cpp:98)
  using 1 OpenMP thread(s) per MPI task
#============Initialization=================
units 			metal
atom_style 		atomic
boundary 		p p p

############################################
#              CLI Variables               #
############################################
variable 		seed index 200093          #
variable 		N index 7                  #
variable 		iter index 1000000         #
variable 		iterther index 100000      #
variable 		iexport index 1000         #
variable 		tempchauf index 3000       #
variable 		Tdamp index 0.001          #
variable 		timestep index 0.0001      #
variable 		box_size index 10		   #
############################################
############################################

#=========Simulation box definition=========
lattice 		sc 1.0
Lattice spacing in x,y,z = 1 1 1
region 			bigbox block 0 ${box_size} 0 ${box_size} 0 ${box_size}
region 			bigbox block 0 10 0 ${box_size} 0 ${box_size}
region 			bigbox block 0 10 0 10 0 ${box_size}
region 			bigbox block 0 10 0 10 0 10
create_box 		1 bigbox
Created orthogonal box = (0 0 0) to (10 10 10)
  1 by 1 by 1 MPI processor grid

#==================Atoms====================
region 			safezone block 6 9 6 9 6 9 units box
create_atoms 	1 random ${N} ${seed} safezone
create_atoms 	1 random 7 ${seed} safezone
create_atoms 	1 random 7 200093 safezone
Created 7 atoms
  using lattice units in orthogonal box = (0 0 0) to (10 10 10)
  create_atoms CPU = 0.000 seconds
mass 			* 12.01



#==========Velocity initialization==========
velocity 		all create 0.0000001 1563967 rot yes dist gaussian

#======Pair style for atom interactions=============
pair_style 		airebo 1.8 1 1
pair_coeff 		* * CH.airebo C
Reading airebo potential file CH.airebo with DATE: 2011-10-25

#==============Neighbor selection===================
neighbor 		0.3 bin
neigh_modify 	every 1 delay 0 check yes


#=====================Timestep======================
timestep 		${timestep}
timestep 		0.0001

#===============Define dump command=================
dump 			1 all cfg 100000 ./dump/dump.tensile_*.cfg mass type xs ys zs vx vy vz id

#========System temperature printing info===========
thermo_style 	custom step temp etotal epair pe ke
thermo 			${iexport}
thermo 			1000


#====================CRC Cycle======================

#=============Condensation et chauffe===============
fix 			1 all nve
fix 			2 all temp/berendsen 0.0 ${tempchauf} ${Tdamp}
fix 			2 all temp/berendsen 0.0 3000 ${Tdamp}
fix 			2 all temp/berendsen 0.0 3000 0.001
fix             3 all momentum 1 linear 1 1 1 angular rescale

run 			${iter}
run 			1000000
Neighbor list info ...
  update: every = 1 steps, delay = 0 steps, check = yes
  max neighbors/atom: 2000, page size: 100000
  master list distance cutoff = 8.116371
  ghost atom cutoff = 8.116371
  binsize = 4.0581855, bins = 3 3 3
  1 neighbor lists, perpetual/occasional/extra = 1 0 0
  (1) pair airebo, perpetual
      attributes: full, newton on, ghost
      pair build: full/bin/ghost
      stencil: full/ghost/bin/3d
      bin: standard
Per MPI rank memory allocation (min/avg/max) = 3.878 | 3.878 | 3.878 Mbytes
   Step          Temp          TotEng         E_pair         PotEng         KinEng    
         0   1e-07          1284.8674      1284.8674      1284.8674      7.7556087e-11
      1000   14.920017     -24.183773     -24.195344     -24.195344      0.011571382  
      2000   11.671363     -24.843486     -24.852538     -24.852538      0.0090518526 
      3000   289.48937     -29.1572       -29.381717     -29.381717      0.22451663   
      4000   17.592557     -31.584686     -31.598331     -31.598331      0.013644099  
      5000   16.691701     -31.86989      -31.882836     -31.882836      0.01294543   
      6000   17.467709     -31.928195     -31.941743     -31.941743      0.013547272  
      7000   22.816894     -31.86894      -31.886636     -31.886636      0.01769589   
      8000   22.809643     -31.906913     -31.924603     -31.924603      0.017690266  
      9000   28.397059     -31.883775     -31.905799     -31.905799      0.022023648  
     10000   27.93505      -31.882815     -31.90448      -31.90448       0.021665332  
     11000   35.067905     -31.886135     -31.913333     -31.913333      0.027197295  
     12000   33.606772     -31.830947     -31.857011     -31.857011      0.026064098  
     13000   39.684164     -31.906713     -31.93749      -31.93749       0.030777484  
     14000   40.899949     -31.779554     -31.811275     -31.811275      0.0317204    
     15000   43.42425      -31.897371     -31.931049     -31.931049      0.033678149  
     16000   55.105447     -31.745391     -31.788129     -31.788129      0.042737628  
     17000   47.67374      -31.861732     -31.898706     -31.898706      0.036973888  
     18000   53.721391     -31.881302     -31.922966     -31.922966      0.041664209  
     19000   56.575133     -31.805308     -31.849186     -31.849186      0.043877459  
     20000   56.490227     -31.876903     -31.920714     -31.920714      0.04381161   
     21000   65.048814     -31.859382     -31.909831     -31.909831      0.050449315  
     22000   65.520438     -31.743126     -31.793941     -31.793941      0.050815088  
     23000   66.315792     -31.837367     -31.888799     -31.888799      0.051431934  
     24000   73.472598     -31.839573     -31.896555     -31.896555      0.056982472  
     25000   71.627793     -31.777989     -31.83354      -31.83354       0.055551713  
     26000   75.624671     -31.806368     -31.865019     -31.865019      0.058651536  
     27000   81.209143     -31.859417     -31.9224       -31.9224        0.062982633  
     28000   81.647778     -31.790076     -31.853399     -31.853399      0.063322822  
     29000   86.32443      -31.787855     -31.854805     -31.854805      0.06694985   
     30000   87.874827     -31.829381     -31.897533     -31.897533      0.068152277  
     31000   98.246679     -31.776825     -31.853021     -31.853021      0.07619628   
     32000   93.155649     -31.752969     -31.825217     -31.825217      0.072247876  
     33000   96.075024     -31.779851     -31.854363     -31.854363      0.074512029  
     34000   102.58132     -31.792427     -31.871985     -31.871985      0.079558056  
     35000   103.68458     -31.722844     -31.803258     -31.803258      0.080413701  
     36000   101.98267     -31.741772     -31.820866     -31.820866      0.079093772  
     37000   112.63854     -31.775193     -31.862551     -31.862551      0.087358046  
     38000   111.77699     -31.792267     -31.878957     -31.878957      0.086689858  
     39000   117.87718     -31.787609     -31.879029     -31.879029      0.091420931  
     40000   118.92099     -31.781747     -31.873977     -31.873977      0.092230468  
     41000   120.39548     -31.762951     -31.856325     -31.856325      0.093374022  
     42000   125.48979     -31.765816     -31.863141     -31.863141      0.097324968  
     43000   129.1192      -31.740884     -31.841023     -31.841023      0.1001398    
     44000   132.11149     -31.772144     -31.874605     -31.874605      0.1024605    
     45000   135.15877     -31.761965     -31.866789     -31.866789      0.10482385   
     46000   144.56209     -31.658078     -31.770194     -31.770194      0.1121167    
     47000   143.18645     -31.725328     -31.836378     -31.836378      0.11104981   
     48000   157.81457     -31.709801     -31.832195     -31.832195      0.1223948    
     49000   144.92557     -31.655163     -31.767562     -31.767562      0.1123986    
     50000   141.76263     -31.665931     -31.775877     -31.775877      0.10994555   
     51000   139.53215     -31.660276     -31.768492     -31.768492      0.10821567   
     52000   153.68196     -31.683802     -31.802992     -31.802992      0.11918972   
     53000   166.4734      -31.711124     -31.840235     -31.840235      0.12911025   
     54000   173.72007     -31.717537     -31.852267     -31.852267      0.13473049   
     55000   166.83464     -31.734436     -31.863826     -31.863826      0.12939042   
     56000   182.09512     -31.680503     -31.821729     -31.821729      0.14122585   
     57000   165.94674     -31.609038     -31.73774      -31.73774       0.1287018    
     58000   162.88848     -31.681394     -31.807724     -31.807724      0.12632993   
     59000   175.01332     -31.698175     -31.833908     -31.833908      0.13573348   
     60000   186.30319     -31.737875     -31.882364     -31.882364      0.14448947   
     61000   188.23718     -31.584212     -31.730201     -31.730201      0.14598939   
     62000   184.09424     -31.63299      -31.775767     -31.775767      0.14277629   
     63000   186.35361     -31.673088     -31.817617     -31.817617      0.14452857   
     64000   188.83425     -31.696682     -31.843135     -31.843135      0.14645246   
     65000   205.90769     -31.595636     -31.75533      -31.75533       0.15969395   
     66000   176.46736     -31.50437      -31.641231     -31.641231      0.13686118   
     67000   190.14943     -31.580643     -31.728115     -31.728115      0.14747245   
     68000   195.86459     -31.714836     -31.866741     -31.866741      0.15190491   
     69000   205.21128     -31.684533     -31.843687     -31.843687      0.15915384   
     70000   200.12562     -31.480101     -31.63531      -31.63531       0.1552096    
     71000   206.135       -31.580497     -31.740367     -31.740367      0.15987024   
     72000   227.55375     -31.631335     -31.807817     -31.807817      0.17648179   
     73000   223.05574     -31.440312     -31.613306     -31.613306      0.1729933    
     74000   206.34716     -31.480948     -31.640983     -31.640983      0.16003478   
     75000   220.55748     -31.649208     -31.820263     -31.820263      0.17105575   
     76000   242.44851     -31.592067     -31.780101     -31.780101      0.18803358   
     77000   225.40086     -31.514404     -31.689216     -31.689216      0.17481209   
     78000   226.88094     -31.609867     -31.785827     -31.785827      0.17595998   
     79000   238.62335     -31.588619     -31.773686     -31.773686      0.18506693   
     80000   231.89425     -31.452698     -31.632546     -31.632546      0.17984811   
     81000   255.29924     -31.488119     -31.686119     -31.686119      0.1980001    
     82000   246.35874     -31.568805     -31.759871     -31.759871      0.1910662    
     83000   269.9889      -31.484296     -31.693689     -31.693689      0.20939283   
     84000   253.9413      -31.391343     -31.58829      -31.58829       0.19694693   
     85000   231.41669     -31.467038     -31.646516     -31.646516      0.17947773   
     86000   262.75298     -31.558908     -31.762689     -31.762689      0.20378093   
     87000   253.89661     -31.637605     -31.834517     -31.834517      0.19691227   
     88000   264.7136      -31.537871     -31.743173     -31.743173      0.20530151   
     89000   284.23372     -31.383211     -31.603651     -31.603651      0.22044055   
     90000   284.42783     -31.447008     -31.667599     -31.667599      0.22059109   
     91000   274.08674     -31.622864     -31.835435     -31.835435      0.21257095   
     92000   279.09318     -31.557922     -31.774376     -31.774376      0.21645375   
     93000   260.75633     -31.20369      -31.405923     -31.405923      0.20223241   
     94000   273.63585     -31.494732     -31.706954     -31.706954      0.21222126   
     95000   286.84658     -31.603347     -31.825814     -31.825814      0.22246698   
     96000   323.5893      -31.480304     -31.731267     -31.731267      0.2509632    
     97000   327.78897     -31.411262     -31.665482     -31.665482      0.2542203    
     98000   295.38497     -31.465112     -31.694201     -31.694201      0.22908903   
     99000   288.70495     -31.510284     -31.734192     -31.734192      0.22390826   
    100000   315.45617     -31.396229     -31.640885     -31.640885      0.24465546   
    101000   291.17723     -31.344273     -31.570098     -31.570098      0.22582567   
    102000   316.63808     -31.490381     -31.735953     -31.735953      0.2455721    
    103000   288.1907      -31.529454     -31.752964     -31.752964      0.22350943   
    104000   320.78827     -31.297697     -31.546487     -31.546487      0.24879083   
    105000   309.69583     -31.53847      -31.778658     -31.778658      0.24018797   
    106000   323.34751     -31.533709     -31.784485     -31.784485      0.25077567   
    107000   344.06927     -31.334218     -31.601064     -31.601064      0.26684666   
    108000   317.39824     -31.401824     -31.647986     -31.647986      0.24616166   
    109000   318.34183     -31.500718     -31.747611     -31.747611      0.24689347   
    110000   320.87061     -31.401046     -31.6499       -31.6499        0.24885469   
    111000   323.89474     -31.295368     -31.546568     -31.546568      0.25120009   
    112000   317.42664     -31.22304      -31.469223     -31.469223      0.24618368   
    113000   329.36643     -31.365379     -31.620822     -31.620822      0.25544372   
    114000   358.09553     -31.602608     -31.880333     -31.880333      0.27772488   
    115000   405.04572     -31.370391     -31.684529     -31.684529      0.31413761   
    116000   317.55549     -31.241859     -31.488143     -31.488143      0.24628361   
    117000   344.14751     -31.503929     -31.770836     -31.770836      0.26690734   
    118000   345.01807     -31.370682     -31.638265     -31.638265      0.26758252   
    119000   364.28604     -31.399152     -31.681678     -31.681678      0.282526     
    120000   365.17301     -31.235526     -31.51874      -31.51874       0.2832139    
    121000   361.70133     -31.375382     -31.655903     -31.655903      0.2805214    
    122000   369.5325      -31.317485     -31.60408      -31.60408       0.28659495   
    123000   383.17667     -31.261567     -31.558744     -31.558744      0.29717683   
    124000   369.30552     -31.041387     -31.327806     -31.327806      0.28641891   
    125000   301.37789     -31.371848     -31.605585     -31.605585      0.2337369    
    126000   361.50978     -31.397256     -31.677629     -31.677629      0.28037284   
    127000   387.43542     -31.41136      -31.71184      -31.71184       0.30047975   
    128000   376.31631     -31.175792     -31.467649     -31.467649      0.2918562    
    129000   414.62363     -31.377079     -31.698644     -31.698644      0.32156586   
    130000   390.67956     -31.427464     -31.73046      -31.73046       0.30299578   
    131000   390.50398     -31.273215     -31.576074     -31.576074      0.30285961   
    132000   412.4973      -31.239111     -31.559027     -31.559027      0.31991677   
    133000   399.70796     -31.247384     -31.557381     -31.557381      0.30999785   
    134000   382.54398     -31.367736     -31.664422     -31.664422      0.29668614   
    135000   414.85594     -31.273875     -31.595621     -31.595621      0.32174603   
    136000   398.10205     -31.196684     -31.505436     -31.505436      0.30875237   
    137000   371.38029     -31.287784     -31.575812     -31.575812      0.28802802   
    138000   417.10021     -31.233999     -31.557485     -31.557485      0.3234866    
    139000   427.70897     -31.259604     -31.591318     -31.591318      0.33171434   
    140000   439.63862     -31.280375     -31.621342     -31.621342      0.34096651   
    141000   411.47873     -31.168126     -31.487253     -31.487253      0.3191268    
    142000   431.45146     -31.291557     -31.626174     -31.626174      0.33461687   
    143000   415.32375     -31.399994     -31.722103     -31.722103      0.32210885   
    144000   446.66161     -30.867529     -31.213943     -31.213943      0.34641326   
    145000   425.17298     -31.315487     -31.645234     -31.645234      0.32974753   
    146000   440.5953      -31.37645      -31.718159     -31.718159      0.34170847   
    147000   431.11466     -30.989812     -31.324168     -31.324168      0.33435566   
    148000   440.77883     -31.371145     -31.712996     -31.712996      0.34185081   
    149000   441.0291      -31.179794     -31.521839     -31.521839      0.34204491   
    150000   417.45217     -31.043783     -31.367543     -31.367543      0.32375957   
    151000   469.78412     -31.307581     -31.671927     -31.671927      0.36434618   
    152000   466.89656     -31.19386      -31.555967     -31.555967      0.36210671   
    153000   422.9162      -31.050904     -31.378902     -31.378902      0.32799725   
    154000   436.29137     -31.316161     -31.654531     -31.654531      0.33837052   
    155000   470.41735     -31.199969     -31.564806     -31.564806      0.36483729   
    156000   490.93829     -31.315337     -31.696089     -31.696089      0.38075252   
    157000   486.07915     -31.092205     -31.469189     -31.469189      0.37698397   
    158000   470.28224     -31.10887      -31.473602     -31.473602      0.36473251   
    159000   497.95811     -31.079919     -31.466116     -31.466116      0.38619682   
    160000   449.74175     -31.285028     -31.63383      -31.63383       0.3488021    
    161000   494.63918     -34.596266     -34.979889     -34.979889      0.3836228    
    162000   483.6653      -35.044684     -35.419796     -35.419796      0.37511188   
    163000   510.14574     -34.676967     -35.072616     -35.072616      0.39564907   
    164000   463.64007     -35.199229     -35.55881      -35.55881       0.3595811    
    165000   505.57602     -34.845912     -35.238017     -35.238017      0.39210498   
    166000   466.62551     -34.888257     -35.250153     -35.250153      0.36189649   
    167000   504.57241     -34.912504     -35.30383      -35.30383       0.39132662   
    168000   496.40007     -34.772062     -35.15705      -35.15705       0.38498847   
    169000   536.65614     -34.927633     -35.343842     -35.343842      0.4162095    
    170000   506.91411     -34.763325     -35.156468     -35.156468      0.39314275   
    171000   488.48372     -35.070147     -35.448996     -35.448996      0.37884886   
    172000   527.39483     -34.750616     -35.159642     -35.159642      0.40902679   
    173000   497.28227     -35.096179     -35.481851     -35.481851      0.38567267   
    174000   513.8851      -35.002311     -35.40086      -35.40086       0.39854917   
    175000   497.7598      -34.871909     -35.257952     -35.257952      0.38604302   
    176000   570.73046     -34.732864     -35.1755       -35.1755        0.44263621   
    177000   511.37425     -34.759784     -35.156386     -35.156386      0.39660186   
    178000   561.19022     -34.965255     -35.400492     -35.400492      0.43523717   
    179000   453.9395      -34.602803     -34.95486      -34.95486       0.35205771   
    180000   524.82544     -35.085762     -35.492796     -35.492796      0.40703407   
    181000   546.45943     -34.743334     -35.167147     -35.167147      0.42381255   
    182000   534.57594     -35.003027     -35.417623     -35.417623      0.41459618   
    183000   546.90327     -34.855201     -35.279358     -35.279358      0.42415677   
    184000   530.43706     -34.819474     -35.23086      -35.23086       0.41138623   
    185000   594.39212     -34.514438     -34.975425     -34.975425      0.46098727   
    186000   554.47099     -34.970709     -35.400735     -35.400735      0.430026     
    187000   501.72285     -34.578075     -34.967192     -34.967192      0.38911661   
    188000   538.84089     -34.85514      -35.273044     -35.273044      0.41790391   
    189000   569.09081     -34.654036     -35.0954       -35.0954        0.44136456   
    190000   580.13097     -35.00072      -35.450647     -35.450647      0.44992688   
    191000   591.00556     -34.58588      -35.044241     -35.044241      0.45836079   
    192000   578.82014     -35.067074     -35.515984     -35.515984      0.44891025   
    193000   597.3523      -34.449939     -34.913222     -34.913222      0.46328307   
    194000   601.70567     -35.000703     -35.467362     -35.467362      0.46665938   
    195000   556.17917     -34.605805     -35.037156     -35.037156      0.4313508    
    196000   575.08235     -34.911542     -35.357554     -35.357554      0.44601137   
    197000   567.98027     -34.584949     -35.025452     -35.025452      0.44050327   
    198000   588.91183     -34.692659     -35.149396     -35.149396      0.45673697   
    199000   591.82489     -34.873545     -35.332542     -35.332542      0.45899623   
    200000   628.86135     -34.53846      -35.02618      -35.02618       0.48772026   
    201000   576.64223     -35.042072     -35.489293     -35.489293      0.44722115   
    202000   593.17081     -34.464457     -34.924497     -34.924497      0.46004007   
    203000   662.65895     -34.940304     -35.454237     -35.454237      0.51393235   
    204000   573.37183     -34.111591     -34.556275     -34.556275      0.44468475   
    205000   638.07762     -34.906664     -35.401532     -35.401532      0.49486803   
    206000   622.63488     -34.304634     -34.787525     -34.787525      0.48289125   
    207000   652.31051     -34.972661     -35.478568     -35.478568      0.50590651   
    208000   560.21383     -34.533289     -34.967769     -34.967769      0.43447993   
    209000   655.52938     -34.901219     -35.409621     -35.409621      0.50840294   
    210000   603.45215     -34.357829     -34.825843     -34.825843      0.46801388   
    211000   631.99063     -34.766126     -35.256273     -35.256273      0.4901472    
    212000   663.28655     -34.390805     -34.905225     -34.905225      0.51441909   
    213000   661.94014     -34.666429     -35.179804     -35.179804      0.51337487   
    214000   659.94101     -34.424845     -34.936669     -34.936669      0.51182442   
    215000   668.04627     -34.806955     -35.325066     -35.325066      0.51811055   
    216000   608.19153     -34.268814     -34.740504     -34.740504      0.47168955   
    217000   648.13508     -34.781696     -35.284364     -35.284364      0.50266821   
    218000   670.37045     -34.421261     -34.941174     -34.941174      0.51991309   
    219000   671.75938     -34.984269     -35.50526      -35.50526       0.52099029   
    220000   596.00627     -34.134426     -34.596665     -34.596665      0.46223914   
    221000   623.12636     -34.790929     -35.274201     -35.274201      0.48327242   
    222000   655.45078     -34.36802      -34.876361     -34.876361      0.50834198   
    223000   684.2168      -34.974366     -35.505017     -35.505017      0.53065177   
    224000   627.05494     -34.626721     -35.11304      -35.11304       0.48631927   
    225000   680.97009     -34.704799     -35.232933     -35.232933      0.52813375   
    226000   781.54522     -34.002189     -34.608325     -34.608325      0.60613589   
    227000   670.75225     -34.790176     -35.310385     -35.310385      0.5202092    
    228000   706.10557     -34.272042     -34.81967      -34.81967       0.54762785   
    229000   638.67378     -34.769253     -35.264584     -35.264584      0.49533039   
    230000   649.50743     -34.385745     -34.889478     -34.889478      0.50373255   
    231000   612.16321     -34.776224     -35.250994     -35.250994      0.47476983   
    232000   651.11203     -34.574122     -35.079099     -35.079099      0.50497701   
    233000   691.29201     -34.479551     -35.01569      -35.01569       0.53613904   
    234000   717.67112     -34.587015     -35.143613     -35.143613      0.55659764   
    235000   675.58976     -34.801135     -35.325096     -35.325096      0.52396098   
    236000   717.57911     -34.70031      -35.256836     -35.256836      0.55652628   
    237000   684.43241     -34.30332      -34.834139     -34.834139      0.53081899   
    238000   672.37074     -34.667971     -35.189435     -35.189435      0.52146444   
    239000   737.49052     -34.700194     -35.272162     -35.272162      0.57196879   
    240000   719.00145     -34.584779     -35.142409     -35.142409      0.55762939   
    241000   737.87171     -34.444905     -35.017169     -35.017169      0.57226443   
    242000   667.78572     -34.418934     -34.936842     -34.936842      0.51790847   
    243000   693.85162     -34.5443       -35.082425     -35.082425      0.53812416   
    244000   740.60843     -34.822909     -35.397296     -35.397296      0.57438692   
    245000   737.70465     -34.39713      -34.969265     -34.969265      0.57213486   
    246000   729.73334     -34.44294      -35.008892     -35.008892      0.56595262   
    247000   708.50496     -34.322671     -34.872159     -34.872159      0.54948872   
    248000   780.27996     -34.518751     -35.123905     -35.123905      0.6051546    
    249000   695.80572     -34.459183     -34.998823     -34.998823      0.53963969   
    250000   692.77614     -34.544569     -35.081859     -35.081859      0.53729007   
    251000   769.39355     -34.201968     -34.79868      -34.79868       0.59671153   
    252000   722.85478     -34.493942     -35.05456      -35.05456       0.56061788   
    253000   729.49977     -34.315082     -34.880854     -34.880854      0.56577148   
    254000   743.83546     -34.513693     -35.090583     -35.090583      0.57688967   
    255000   837.51877     -34.502088     -35.151634     -35.151634      0.64954678   
    256000   749.10575     -34.664752     -35.245729     -35.245729      0.58097711   
    257000   747.75502     -34.282595     -34.862524     -34.862524      0.57992953   
    258000   778.29566     -34.71621      -35.319826     -35.319826      0.60361566   
    259000   775.76218     -34.310805     -34.912456     -34.912456      0.60165079   
    260000   799.96282     -34.686485     -35.306904     -35.306904      0.62041986   
    261000   718.85336     -34.470344     -35.027859     -35.027859      0.55751454   
    262000   797.9772      -34.555565     -35.174445     -35.174445      0.61887989   
    263000   756.20083     -34.223937     -34.810417     -34.810417      0.58647978   
    264000   806.03635     -34.76915      -35.39428      -35.39428       0.62513025   
    265000   779.38352     -34.120047     -34.724507     -34.724507      0.60445936   
    266000   769.11312     -34.555046     -35.15154      -35.15154       0.59649404   
    267000   787.21448     -34.511091     -35.121624     -35.121624      0.61053275   
    268000   807.98012     -34.44896      -35.075597     -35.075597      0.62663776   
    269000   786.60773     -34.438498     -35.04856      -35.04856       0.61006218   
    270000   863.94167     -34.324774     -34.994813     -34.994813      0.67003936   
    271000   808.17742     -34.414496     -35.041287     -35.041287      0.62679079   
    272000   880.17439     -34.143705     -34.826334     -34.826334      0.68262882   
    273000   823.38972     -34.448059     -35.086648     -35.086648      0.63858885   
    274000   863.34946     -33.766672     -34.436252     -34.436252      0.66958005   
    275000   816.79399     -34.712147     -35.345621     -35.345621      0.63347346   
    276000   794.62755     -33.85876      -34.475042     -34.475042      0.61628204   
    277000   922.88651     -34.652838     -35.368593     -35.368593      0.71575466   
    278000   840.11562     -33.77308      -34.42464      -34.42464       0.6515608    
    279000   862.82653     -34.62601      -35.295184     -35.295184      0.66917449   
    280000   867.77996     -34.168803     -34.84182      -34.84182       0.67301618   
    281000   877.46357     -34.503343     -35.18387      -35.18387       0.68052641   
    282000   886.46478     -34.169802     -34.857309     -34.857309      0.68750739   
    283000   857.88544     -34.273317     -34.93866      -34.93866       0.66534238   
    284000   880.48983     -34.283526     -34.966399     -34.966399      0.68287346   
    285000   949.60928     -34.230728     -34.967208     -34.967208      0.7364798    
    286000   853.94787     -34.774234     -35.436523     -35.436523      0.66228855   
    287000   916.53466     -33.554593     -34.265422     -34.265422      0.71082842   
    288000   898.97468     -34.680064     -35.377274     -35.377274      0.69720959   
    289000   870.42698     -34.290934     -34.966003     -34.966003      0.6750691    
    290000   881.99249     -34.385272     -35.069311     -35.069311      0.68403886   
    291000   926.65458     -33.504308     -34.222986     -34.222986      0.71867703   
    292000   900.41644     -34.772198     -35.470525     -35.470525      0.69832776   
    293000   891.54077     -33.484316     -34.175761     -34.175761      0.69144414   
    294000   914.94431     -34.080979     -34.790574     -34.790574      0.709595     
    295000   938.46091     -34.536829     -35.264662     -35.264662      0.72783356   
    296000   975.79576     -33.915428     -34.672217     -34.672217      0.75678901   
    297000   908.84318     -34.570417     -35.27528      -35.27528       0.70486321   
    298000   872.52338     -34.15404      -34.830735     -34.830735      0.67669499   
    299000   961.97355     -34.588105     -35.334174     -35.334174      0.74606905   
    300000   797.51199     -33.721904     -34.340424     -34.340424      0.61851909   
    301000   859.91136     -34.704864     -35.371777     -35.371777      0.6669136    
    302000   935.37361     -33.595864     -34.321303     -34.321303      0.72543917   
    303000   895.65443     -34.571278     -35.265912     -35.265912      0.69463453   
    304000   874.31709     -33.907855     -34.585941     -34.585941      0.67808612   
    305000   890.9241      -34.060731     -34.751697     -34.751697      0.69096587   
    306000   894.77919     -34.286451     -34.980406     -34.980406      0.69395572   
    307000   939.44537     -33.854312     -34.582909     -34.582909      0.72859707   
    308000   928.26519     -34.253155     -34.973081     -34.973081      0.71992616   
    309000   991.0622      -33.638155     -34.406784     -34.406784      0.76862906   
    310000   920.83444     -34.679919     -35.394082     -35.394082      0.71416316   
    311000   928.49866     -33.858937     -34.579044     -34.579044      0.72010723   
    312000   923.31831     -34.407194     -35.123284     -35.123284      0.71608955   
    313000   916.49122     -34.359802     -35.070596     -35.070596      0.71079473   
    314000   944.9276      -34.221149     -34.953997     -34.953997      0.73284887   
    315000   959.30526     -34.385405     -35.129404     -35.129404      0.74399962   
    316000   986.5544      -34.048988     -34.814121     -34.814121      0.76513299   
    317000   950.46417     -34.225046     -34.962188     -34.962188      0.73714282   
    318000   928.01811     -34.02207      -34.741805     -34.741805      0.71973453   
    319000   925.61067     -34.410145     -35.128012     -35.128012      0.71786742   
    320000   923.40744     -34.282847     -34.999006     -34.999006      0.71615868   
    321000   973.87713     -34.334328     -35.089629     -35.089629      0.755301     
    322000   978.32985     -34.036923     -34.795677     -34.795677      0.75875435   
    323000   1014.2414     -34.164883     -34.951489     -34.951489      0.78660597   
    324000   897.2922      -34.319202     -35.015107     -35.015107      0.69590472   
    325000   1022.389      -33.830047     -34.622972     -34.622972      0.79292492   
    326000   998.83235     -34.36893      -35.143585     -35.143585      0.77465529   
    327000   941.63875     -33.712384     -34.442682     -34.442682      0.73029817   
    328000   1025.2985     -34.389865     -35.185046     -35.185046      0.79518139   
    329000   1066.0473     -33.574072     -34.400857     -34.400857      0.82678454   
    330000   1036.1318     -34.256363     -35.059946     -35.059946      0.80358329   
    331000   984.79633     -33.931243     -34.695012     -34.695012      0.7637695    
    332000   1015.8521     -33.332445     -34.1203       -34.1203        0.78785514   
    333000   954.5993      -34.471082     -35.211432     -35.211432      0.74034986   
    334000   1096.4592     -34.040907     -34.891277     -34.891277      0.85037087   
    335000   995.29942     -34.341645     -35.11356      -35.11356       0.77191528   
    336000   954.49429     -33.591508     -34.331777     -34.331777      0.74026842   
    337000   1016.7422     -34.362325     -35.15087      -35.15087       0.78854544   
    338000   1207.6405     -33.657144     -34.593743     -34.593743      0.93659871   
    339000   987.01711     -34.473849     -35.239341     -35.239341      0.76549185   
    340000   1012.97       -33.371362     -34.156982     -34.156982      0.78561986   
    341000   1048.9962     -34.497109     -35.31067      -35.31067       0.81356041   
    342000   1004.9442     -33.784899     -34.564295     -34.564295      0.77939539   
    343000   988.9619      -33.976896     -34.743896     -34.743896      0.76700015   
    344000   1013.9932     -34.019246     -34.805659     -34.805659      0.78641342   
    345000   1025.7828     -33.671079     -34.466636     -34.466636      0.795557     
    346000   991.75933     -34.175254     -34.944423     -34.944423      0.76916973   
    347000   1032.797      -33.967542     -34.768539     -34.768539      0.80099693   
    348000   1026.4504     -33.891468     -34.687543     -34.687543      0.79607475   
    349000   1112.853      -33.744782     -34.607868     -34.607868      0.86308521   
    350000   992.03882     -34.348359     -35.117745     -35.117745      0.76938649   
    351000   1150.9666     -33.570546     -34.463191     -34.463191      0.89264462   
    352000   1017.5261     -34.119273     -34.908426     -34.908426      0.78915344   
    353000   1110.2346     -33.708279     -34.569334     -34.569334      0.86105455   
    354000   1127.0655     -34.424102     -35.29821      -35.29821       0.87410788   
    355000   1027.1064     -33.366917     -34.1635       -34.1635        0.7965835    
    356000   1057.3261     -34.546043     -35.366064     -35.366064      0.82002072   
    357000   1137.4302     -33.382724     -34.26487      -34.26487       0.88214632   
    358000   1057.5791     -33.986763     -34.80698      -34.80698       0.82021695   
    359000   867.66413     -32.50133      -33.174257     -33.174257      0.67292634   
    360000   1138.8204     -34.177082     -35.060306     -35.060306      0.88322451   
    361000   1215.4107     -33.038231     -33.980856     -33.980856      0.94262499   
    362000   1146.0489     -34.545875     -35.434706     -35.434706      0.88883069   
    363000   1040.9178     -33.339635     -34.14693      -34.14693       0.8072951    
    364000   1095.2282     -34.252115     -35.101531     -35.101531      0.8494161    
    365000   1065.0268     -33.739891     -34.565884     -34.565884      0.82599308   
    366000   1093.1932     -33.084842     -33.93268      -33.93268       0.84783788   
    367000   1146.5062     -34.507857     -35.397042     -35.397042      0.88918531   
    368000   1062.5152     -33.138057     -33.962102     -33.962102      0.82404521   
    369000   1150.9835     -34.145588     -35.038246     -35.038246      0.89265776   
    370000   1239.5904     -33.289385     -34.250763     -34.250763      0.96137782   
    371000   1111.9295     -34.286995     -35.149364     -35.149364      0.86236901   
    372000   1108.5658     -33.563544     -34.423304     -34.423304      0.85976023   
    373000   1182.8072     -33.68891      -34.606249     -34.606249      0.91733899   
    374000   1117.1393     -34.287148     -35.153557     -35.153557      0.86640952   
    375000   1010.0749     -33.02698      -33.810354     -33.810354      0.7833746    
    376000   1149.7012     -34.537028     -35.428691     -35.428691      0.89166324   
    377000   1074.0945     -32.971833     -33.804859     -33.804859      0.83302569   
    378000   1147.0819     -32.973598     -33.86323      -33.86323       0.88963186   
    379000   1078.0396     -34.488286     -35.324371     -35.324371      0.83608531   
    380000   1109.2843     -32.997053     -33.857371     -33.857371      0.86031752   
    381000   1148.0904     -34.441483     -35.331897     -35.331897      0.89041401   
    382000   1142.1917     -33.633912     -34.519751     -34.519751      0.88583922   
    383000   1150.0892     -33.296613     -34.188577     -34.188577      0.89196418   
    384000   1127.8343     -34.095562     -34.970266     -34.970266      0.87470417   
    385000   1076.4648     -33.452168     -34.287032     -34.287032      0.83486394   
    386000   1190.7554     -34.342602     -35.266105     -35.266105      0.92350332   
    387000   1140.7119     -33.662727     -34.547418     -34.547418      0.88469155   
    388000   1182.5954     -33.954496     -34.871671     -34.871671      0.91717474   
    389000   1095.7107     -34.052879     -34.902669     -34.902669      0.84979037   
    390000   1182.3541     -33.718467     -34.635454     -34.635454      0.91698758   
    391000   1204.8243     -34.170621     -35.105036     -35.105036      0.93441455   
    392000   1139.6785     -32.887531     -33.771421     -33.771421      0.88389002   
    393000   1184.4299     -34.026819     -34.945416     -34.945416      0.91859748   
    394000   1200.5557     -33.815517     -34.746621     -34.746621      0.93110403   
    395000   1126.1203     -32.605329     -33.478704     -33.478704      0.87337487   
    396000   1225.9553     -34.168252     -35.119055     -35.119055      0.95080295   
    397000   1112.5878     -33.171288     -34.034167     -34.034167      0.86287954   
    398000   1277.878      -33.718384     -34.709456     -34.709456      0.99107217   
    399000   1083.2365     -33.826865     -34.666981     -34.666981      0.84011586   
    400000   1299.2327     -33.140837     -34.148471     -34.148471      1.007634     
    401000   1202.0165     -34.210954     -35.143191     -35.143191      0.93223698   
    402000   1339.3307     -33.021694     -34.060426     -34.060426      1.0387325    
    403000   1350.9216     -33.244824     -34.292546     -34.292546      1.047722     
    404000   1237.1018     -33.836512     -34.79596      -34.79596       0.95944776   
    405000   1202.5032     -32.853664     -33.786279     -33.786279      0.93261441   
    406000   1243.7213     -34.382796     -35.347377     -35.347377      0.96458157   
    407000   1120.9373     -32.853363     -33.722718     -33.722718      0.86935514   
    408000   1276.4862     -34.047179     -35.037171     -35.037171      0.98999272   
    409000   1218.6417     -33.557566     -34.502697     -34.502697      0.94513084   
    410000   1341.8249     -32.870445     -33.911112     -33.911112      1.0406669    
    411000   1225.576      -34.091485     -35.041994     -35.041994      0.95050876   
    412000   1302.1245     -32.757046     -33.766923     -33.766923      1.0098768    
    413000   1231.4913     -34.093013     -35.04811      -35.04811       0.95509644   
    414000   1194.2462     -33.47643      -34.402641     -34.402641      0.92621066   
    415000   1180.6074     -32.30829      -33.223922     -33.223922      0.91563287   
    416000   1239.2967     -34.27386      -35.23501      -35.23501       0.96115003   
    417000   1191.512      -33.041567     -33.965657     -33.965657      0.92409007   
    418000   1136.2028     -32.939438     -33.820633     -33.820633      0.8811944    
    419000   1218.2246     -34.341006     -35.285813     -35.285813      0.94480729   
    420000   1220.7748     -32.93777      -33.884555     -33.884555      0.94678518   
    421000   1298.7316     -34.22911      -35.236356     -35.236356      1.0072454    
    422000   1210.5394     -33.132886     -34.071733     -34.071733      0.93884703   
    423000   1376.435      -33.041145     -34.108654     -34.108654      1.0675091    
    424000   1252.9799     -34.232734     -35.204497     -35.204497      0.9717622    
    425000   1194.9444     -32.74918      -33.675932     -33.675932      0.92675215   
    426000   1257.499      -34.182654     -35.157921     -35.157921      0.97526702   
    427000   1286.4625     -33.380823     -34.378553     -34.378553      0.99772995   
    428000   1330.3779     -33.258517     -34.290306     -34.290306      1.031789     
    429000   1264.2672     -34.087884     -35.0684       -35.0684        0.98051614   
    430000   1390.949      -32.443232     -33.521997     -33.521997      1.0787656    
    431000   1273.8088     -33.87985      -34.867767     -34.867767      0.98791629   
    432000   1204.7592     -33.470025     -34.404389     -34.404389      0.9343641    
    433000   1401.6359     -32.295376     -33.38243      -33.38243       1.0870539    
    434000   1279.7843     -34.181645     -35.174195     -35.174195      0.99255066   
    435000   1344.6128     -32.983434     -34.026263     -34.026263      1.0428291    
    436000   1189.9573     -32.891533     -33.814417     -33.814417      0.92288434   
    437000   1291.6391     -34.405153     -35.406898     -35.406898      1.0017447    
    438000   1366.8459     -32.587497     -33.647569     -33.647569      1.0600722    
    439000   1323.0565     -33.942159     -34.968269     -34.968269      1.0261108    
    440000   1243.5268     -33.452437     -34.416867     -34.416867      0.96443074   
    441000   1379.5578     -33.436945     -34.506876     -34.506876      1.0699311    
    442000   1362.2752     -33.930232     -34.98676      -34.98676       1.0565273    
    443000   1357.099      -32.932626     -33.985139     -33.985139      1.0525129    
    444000   1391.7244     -33.674402     -34.753769     -34.753769      1.079367     
    445000   1308.2607     -33.860764     -34.8754       -34.8754        1.0146358    
    446000   1379.001      -33.182034     -34.251533     -34.251533      1.0694992    
    447000   1285.2839     -33.85102      -34.847836     -34.847836      0.99681589   
    448000   1332.6853     -33.277051     -34.310629     -34.310629      1.0335786    
    449000   1382.9404     -34.070193     -35.142747     -35.142747      1.0725545    
    450000   1266.8119     -33.186174     -34.168663     -34.168663      0.98248971   
    451000   1368.1826     -33.286278     -34.347386     -34.347386      1.0611088    
    452000   1320.859      -33.741944     -34.76635      -34.76635       1.0244066    
    453000   1388.5765     -32.92841      -34.005336     -34.005336      1.0769256    
    454000   1326.4143     -34.102573     -35.131288     -35.131288      1.0287151    
    455000   1358.4935     -33.610785     -34.66438      -34.66438       1.0535944    
    456000   1418.5736     -33.145269     -34.245459     -34.245459      1.1001902    
    457000   1373.4354     -33.852766     -34.917949     -34.917949      1.0651827    
    458000   1287.6783     -32.407141     -33.405814     -33.405814      0.99867287   
    459000   1449.1922     -33.353979     -34.477916     -34.477916      1.1239367    
    460000   1386.465      -33.76139      -34.836678     -34.836678      1.075288     
    461000   1355.9128     -33.112078     -34.163671     -34.163671      1.0515929    
    462000   1371.0065     -33.935676     -34.998975     -34.998975      1.063299     
    463000   1306.3253     -32.729927     -33.743062     -33.743062      1.0131348    
    464000   1408.8006     -33.686815     -34.779425     -34.779425      1.0926106    
    465000   1363.0527     -33.681012     -34.738142     -34.738142      1.0571304    
    466000   1400.4345     -33.229216     -34.315338     -34.315338      1.0861222    
    467000   1462.768      -34.230821     -35.365287     -35.365287      1.1344656    
    468000   1384.5961     -33.130322     -34.20416      -34.20416       1.0738386    
    469000   1406.9996     -33.66299      -34.754203     -34.754203      1.0912139    
    470000   1428.0798     -33.515333     -34.622896     -34.622896      1.1075628    
    471000   1476.0428     -32.393717     -33.538478     -33.538478      1.1447611    
    472000   1420.0938     -34.098433     -35.199802     -35.199802      1.1013692    
    473000   1349.9971     -33.067684     -34.114689     -34.114689      1.0470049    
    474000   1427.5283     -32.962614     -34.069749     -34.069749      1.1071351    
    475000   1436.6898     -34.275969     -35.390209     -35.390209      1.1142404    
    476000   1404.4324     -32.112154     -33.201376     -33.201376      1.0892228    
    477000   1440.7367     -33.271987     -34.389366     -34.389366      1.117379     
    478000   1386.0026     -33.849221     -34.924151     -34.924151      1.0749293    
    479000   1429.4452     -31.64569      -32.754312     -32.754312      1.1086218    
    480000   1439.6462     -33.604365     -34.720898     -34.720898      1.1165332    
    481000   1432.3692     -33.575696     -34.686585     -34.686585      1.1108895    
    482000   1398.455      -32.359607     -33.444194     -33.444194      1.084587     
    483000   1434.5759     -33.803609     -34.91621      -34.91621       1.1126009    
    484000   1407.1911     -33.30958      -34.400942     -34.400942      1.0913623    
    485000   1438.1899     -32.607128     -33.722532     -33.722532      1.1154038    
    486000   1445.7673     -34.058133     -35.179414     -35.179414      1.1212805    
    487000   1496.4299     -33.076568     -34.237141     -34.237141      1.1605725    
    488000   1543.7874     -32.931055     -34.128356     -34.128356      1.1973011    
    489000   1423.6099     -34.184087     -35.288183     -35.288183      1.1040961    
    490000   1456.2823     -32.857558     -33.986993     -33.986993      1.1294355    
    491000   1478.031      -33.364056     -34.510359     -34.510359      1.146303     
    492000   1471.7257     -33.929569     -35.070981     -35.070981      1.1414129    
    493000   1609.5892     -31.883749     -33.132083     -33.132083      1.2483344    
    494000   1482.0447     -33.775375     -34.924791     -34.924791      1.1494159    
    495000   1477.851      -33.455121     -34.601285     -34.601285      1.1461634    
    496000   1617.4522     -32.056515     -33.310947     -33.310947      1.2544326    
    497000   1485.8683     -34.017823     -35.170204     -35.170204      1.1523813    
    498000   1432.5343     -33.162133     -34.273151     -34.273151      1.1110176    
    499000   1515.1881     -33.168747     -34.343868     -34.343868      1.1751206    
    500000   1482.6471     -34.158711     -35.308594     -35.308594      1.1498831    
    501000   1517.0271     -32.493137     -33.669684     -33.669684      1.1765469    
    502000   1513.2085     -33.307727     -34.481312     -34.481312      1.1735853    
    503000   1461.5304     -33.444585     -34.578091     -34.578091      1.1335058    
    504000   1557.0588     -31.836763     -33.044357     -33.044357      1.2075938    
    505000   1570.7381     -33.614338     -34.832541     -34.832541      1.218203     
    506000   1498.567      -33.088238     -34.250468     -34.250468      1.1622299    
    507000   1532.5847     -32.521708     -33.710321     -33.710321      1.1886127    
    508000   1586.8183     -34.162719     -35.393393     -35.393393      1.2306741    
    509000   1440.4088     -32.236797     -33.353921     -33.353921      1.1171247    
    510000   1609.5188     -32.960339     -34.208619     -34.208619      1.2482798    
    511000   1558.7943     -33.903903     -35.112843     -35.112843      1.2089399    
    512000   1478.4851     -32.521787     -33.668443     -33.668443      1.1466552    
    513000   1585.6083     -33.944862     -35.174598     -35.174598      1.2297357    
    514000   1449.0333     -32.999486     -34.1233       -34.1233        1.1238135    
    515000   1590.0933     -32.871332     -34.104546     -34.104546      1.2332141    
    516000   1490.5641     -33.915807     -35.07183      -35.07183       1.1560232    
    517000   1539.9468     -32.691255     -33.885577     -33.885577      1.1943225    
    518000   1581.9904     -33.546738     -34.773668     -34.773668      1.2269299    
    519000   1575.1874     -33.439805     -34.661458     -34.661458      1.2216537    
    520000   1478.0349     -33.12179      -34.268096     -34.268096      1.146306     
    521000   1551.6328     -33.935835     -35.139221     -35.139221      1.2033857    
    522000   1605.8949     -33.237207     -34.482677     -34.482677      1.2454692    
    523000   1607.2605     -33.726992     -34.97352      -34.97352       1.2465283    
    524000   1476.7953     -33.135291     -34.280636     -34.280636      1.1453446    
    525000   1605.5062     -33.194501     -34.439668     -34.439668      1.2451678    
    526000   1550.6313     -33.765218     -34.967827     -34.967827      1.2026089    
    527000   1635.3372     -33.110563     -34.378866     -34.378866      1.2683035    
    528000   1508.0817     -33.61328      -34.782889     -34.782889      1.1696091    
    529000   1547.4516     -32.95839      -34.158532     -34.158532      1.2001429    
    530000   1558.2534     -33.42648      -34.635001     -34.635001      1.2085203    
    531000   1514.3143     -33.350088     -34.524531     -34.524531      1.1744429    
    532000   1588.6263     -33.276846     -34.508923     -34.508923      1.2320764    
    533000   1571.1777     -33.382449     -34.600992     -34.600992      1.218544     
    534000   1542.3731     -33.342796     -34.539        -34.539         1.1962042    
    535000   1576.711      -33.506835     -34.729671     -34.729671      1.2228353    
    536000   1631.0171     -33.501541     -34.766494     -34.766494      1.2649531    
    537000   1573.1423     -33.443037     -34.663105     -34.663105      1.2200676    
    538000   1652.6921     -33.284901     -34.566664     -34.566664      1.2817633    
    539000   1634.6005     -33.37659      -34.644322     -34.644322      1.2677322    
    540000   1614.5264     -33.463327     -34.715491     -34.715491      1.2521635    
    541000   1600.0014     -33.15532      -34.396219     -34.396219      1.2408985    
    542000   1614.0909     -33.202855     -34.45468      -34.45468       1.2518257    
    543000   1615.8038     -33.386257     -34.639411     -34.639411      1.2531542    
    544000   1571.8481     -33.151998     -34.371062     -34.371062      1.2190639    
    545000   1671.7615     -33.42364      -34.720192     -34.720192      1.2965528    
    546000   1643.4819     -33.181711     -34.456331     -34.456331      1.2746203    
    547000   1685.65       -33.040956     -34.34828      -34.34828       1.3073242    
    548000   1574.9531     -33.129146     -34.350618     -34.350618      1.221472     
    549000   1666.712      -33.022502     -34.315139     -34.315139      1.2926366    
    550000   1641.4507     -33.718957     -34.992002     -34.992002      1.2730449    
    551000   1647.4489     -33.379813     -34.65751      -34.65751       1.2776969    
    552000   1743.653      -33.445235     -34.797544     -34.797544      1.3523091    
    553000   1536.1489     -32.98913      -34.180507     -34.180507      1.191377     
    554000   1672.2814     -32.731733     -34.028689     -34.028689      1.2969561    
    555000   1645.9189     -33.157989     -34.434499     -34.434499      1.2765103    
    556000   1734.7928     -33.411879     -34.757316     -34.757316      1.3454374    
    557000   1680.1764     -33.652471     -34.955551     -34.955551      1.3030791    
    558000   1640.4359     -32.222453     -33.494711     -33.494711      1.2722579    
    559000   1600.5189     -33.534907     -34.776206     -34.776206      1.2412998    
    560000   1688.8774     -32.870565     -34.180392     -34.180392      1.3098272    
    561000   1700.4153     -33.394758     -34.713533     -34.713533      1.3187756    
    562000   1637.8655     -33.178        -34.448264     -34.448264      1.2702644    
    563000   1690.0825     -32.906957     -34.217718     -34.217718      1.3107618    
    564000   1700.8824     -33.63553      -34.954668     -34.954668      1.3191379    
    565000   1649.635      -32.12811      -33.407502     -33.407502      1.2793924    
    566000   1701.6122     -33.759505     -35.079208     -35.079208      1.3197039    
    567000   1684.6499     -32.852474     -34.159022     -34.159022      1.3065485    
    568000   1770.6468     -32.750203     -34.123447     -34.123447      1.3732444    
    569000   1738.4143     -33.426143     -34.774389     -34.774389      1.3482461    
    570000   1666.8753     -32.290048     -33.582811     -33.582811      1.2927633    
    571000   1650.6901     -33.675472     -34.955683     -34.955683      1.2802106    
    572000   1669.7029     -32.888341     -34.183297     -34.183297      1.2949562    
    573000   1970.1594     -32.634463     -34.162442     -34.162442      1.5279785    
    574000   1656.4469     -33.295377     -34.580053     -34.580053      1.2846754    
    575000   1562.8767     -31.375657     -32.587763     -32.587763      1.212106     
    576000   1701.1562     -33.883771     -35.203121     -35.203121      1.3193502    
    577000   1744.5579     -32.284408     -33.637418     -33.637418      1.3530108    
    578000   1835.5694     -33.04405      -34.467646     -34.467646      1.4235958    
    579000   1782.2658     -32.280076     -33.662331     -33.662331      1.3822556    
    580000   1710.0519     -32.027461     -33.35371      -33.35371       1.3262493    
    581000   1725.9597     -33.227787     -34.566374     -34.566374      1.3385868    
    582000   1818.2945     -32.160594     -33.570792     -33.570792      1.410198     
    583000   1830.1862     -32.818974     -34.238395     -34.238395      1.4194208    
    584000   1680.7884     -33.004236     -34.30779      -34.30779       1.3035537    
    585000   1749.64       -31.919453     -33.276406     -33.276406      1.3569523    
    586000   1566.7842     -33.022089     -34.237226     -34.237226      1.2151365    
    587000   1775.6141     -30.72992      -32.107017     -32.107017      1.3770968    
    588000   1710.3838     -33.187948     -34.514455     -34.514455      1.3265067    
    589000   1822.5085     -32.550984     -33.964451     -33.964451      1.4134663    
    590000   1748.8173     -33.527042     -34.883356     -34.883356      1.3563142    
    591000   1734.9162     -32.866194     -34.211727     -34.211727      1.3455331    
    592000   1882.5582     -32.535998     -33.996036     -33.996036      1.4600385    
    593000   1847.7852     -33.225057     -34.658127     -34.658127      1.4330699    
    594000   1806.3155     -32.141447     -33.542355     -33.542355      1.4009077    
    595000   1823.9286     -33.140985     -34.555553     -34.555553      1.4145677    
    596000   1887.3654     -31.892507     -33.356273     -33.356273      1.4637668    
    597000   1848.6318     -31.695884     -33.129611     -33.129611      1.4337265    
    598000   1792.0488     -34.010998     -35.400841     -35.400841      1.3898429    
    599000   1687.4508     -30.906066     -32.214787     -32.214787      1.3087208    
    600000   1898.8578     -33.073738     -34.546417     -34.546417      1.4726798    
    601000   1714.238      -32.124091     -33.453587     -33.453587      1.3294959    
    602000   1882.3066     -32.537977     -33.99782      -33.99782       1.4598433    
    603000   1911.8        -33.153115     -34.635832     -34.635832      1.4827173    
    604000   1785.7991     -30.968373     -32.353369     -32.353369      1.3849959    
    605000   1812.9324     -33.270732     -34.676772     -34.676772      1.4060394    
    606000   1700.568      -32.740721     -34.059615     -34.059615      1.318894     
    607000   1829.9136     -31.81651      -33.235719     -33.235719      1.4192094    
    608000   1842.6592     -33.094276     -34.52337      -34.52337       1.4290944    
    609000   1905.9766     -31.245336     -32.723537     -32.723537      1.4782009    
    610000   1862.0872     -33.085265     -34.529427     -34.529427      1.444162     
    611000   1848.9216     -32.736488     -34.17044      -34.17044       1.4339513    
    612000   1851.5763     -32.510877     -33.946888     -33.946888      1.4360101    
    613000   1732.7024     -33.703067     -35.046883     -35.046883      1.3438162    
    614000   1727.5777     -31.432983     -32.772825     -32.772825      1.3398417    
    615000   1914.8973     -33.385799     -34.870919     -34.870919      1.4851194    
    616000   1774.0817     -32.122393     -33.498302     -33.498302      1.3759083    
    617000   1956.5375     -31.932641     -33.450055     -33.450055      1.5174139    
    618000   1869.4697     -33.45068      -34.900568     -34.900568      1.4498875    
    619000   1799.7554     -31.215319     -32.611139     -32.611139      1.3958198    
    620000   1897.9411     -33.048426     -34.520395     -34.520395      1.4719688    
    621000   1968.0897     -32.925023     -34.451397     -34.451397      1.5263734    
    622000   1927.3248     -32.213607     -33.708364     -33.708364      1.4947577    
    623000   1755.4078     -33.632486     -34.993912     -34.993912      1.3614256    
    624000   1744.7982     -32.389045     -33.742242     -33.742242      1.3531972    
    625000   1934.1599     -33.306875     -34.806934     -34.806934      1.5000587    
    626000   1704.1554     -32.141813     -33.46349      -33.46349       1.3216763    
    627000   1840.7795     -32.829053     -34.256689     -34.256689      1.4276365    
    628000   1874.7385     -32.778199     -34.232173     -34.232173      1.4539738    
    629000   1828.5414     -31.887703     -33.305848     -33.305848      1.4181451    
    630000   1913.7926     -33.477676     -34.961939     -34.961939      1.4842626    
    631000   1913.8805     -31.88056      -33.364891     -33.364891      1.4843308    
    632000   1931.2171     -32.292472     -33.790249     -33.790249      1.4977764    
    633000   1969.3347     -33.231934     -34.759273     -34.759273      1.5273389    
    634000   1992.2122     -31.208992     -32.754074     -32.754074      1.5450818    
    635000   1897.7398     -33.310607     -34.782419     -34.782419      1.4718127    
    636000   1853.1654     -32.118005     -33.555247     -33.555247      1.4372426    
    637000   2069.639      -33.243116     -34.848247     -34.848247      1.6051311    
    638000   1863.0851     -32.454347     -33.899283     -33.899283      1.4449359    
    639000   1903.4757     -32.327428     -33.803689     -33.803689      1.4762613    
    640000   1789.4757     -33.295768     -34.683615     -34.683615      1.3878473    
    641000   1873.3156     -31.319776     -32.772646     -32.772646      1.4528703    
    642000   1925.189      -33.115054     -34.608155     -34.608155      1.4931013    
    643000   2034.4953     -31.540763     -33.118638     -33.118638      1.5778749    
    644000   1917.2628     -32.957464     -34.444418     -34.444418      1.486954     
    645000   1907.5032     -32.364868     -33.844253     -33.844253      1.4793848    
    646000   1975.2168     -32.100846     -33.632747     -33.632747      1.5319008    
    647000   1900.5381     -32.465248     -33.939231     -33.939231      1.473983     
    648000   1916.3279     -33.003051     -34.48928      -34.48928       1.486229     
    649000   1854.7783     -32.030364     -33.468857     -33.468857      1.4384935    
    650000   1877.9907     -32.681597     -34.138094     -34.138094      1.4564961    
    651000   1931.6837     -31.754756     -33.252895     -33.252895      1.4981383    
    652000   2060.3915     -32.088545     -33.686504     -33.686504      1.597959     
    653000   1946.9654     -33.27123      -34.78122      -34.78122       1.5099902    
    654000   2064.0089     -32.486848     -34.087613     -34.087613      1.6007646    
    655000   1910.0251     -32.127569     -33.608909     -33.608909      1.4813407    
    656000   1861.1888     -32.829198     -34.272663     -34.272663      1.4434652    
    657000   2005.3862     -32.773739     -34.329038     -34.329038      1.555299     
    658000   2037.494      -32.181691     -33.761891     -33.761891      1.5802006    
    659000   1903.0829     -32.552892     -34.028849     -34.028849      1.4759567    
    660000   2025.5368     -32.385875     -33.956802     -33.956802      1.5709271    
    661000   1952.1613     -32.910189     -34.424208     -34.424208      1.5140199    
    662000   1914.3585     -32.797915     -34.282617     -34.282617      1.4847015    
    663000   2086.2461     -32.400206     -34.018217     -34.018217      1.6180108    
    664000   2022.824      -32.578383     -34.147206     -34.147206      1.5688231    
    665000   1982.1707     -33.192605     -34.729899     -34.729899      1.537294     
    666000   1869.8521     -32.40728      -33.857465     -33.857465      1.4501841    
    667000   1981.4519     -32.078671     -33.615407     -33.615407      1.5367366    
    668000   2058.7395     -33.266507     -34.863185     -34.863185      1.5966778    
    669000   1937.3676     -32.496267     -33.998813     -33.998813      1.5025465    
    670000   2087.7677     -32.787941     -34.407131     -34.407131      1.6191909    
    671000   1979.5873     -32.865426     -34.400716     -34.400716      1.5352904    
    672000   1977.9507     -32.582828     -34.116849     -34.116849      1.5340211    
    673000   2043.3017     -33.068764     -34.653469     -34.653469      1.5847048    
    674000   2020.9217     -31.810843     -33.37819      -33.37819       1.5673478    
    675000   1970.3935     -33.171365     -34.699525     -34.699525      1.5281601    
    676000   2123.9574     -32.239822     -33.88708      -33.88708       1.6472582    
    677000   1987.8463     -32.591522     -34.133218     -34.133218      1.5416958    
    678000   1920.0657     -33.045528     -34.534655     -34.534655      1.4891278    
    679000   2095.309      -32.24952      -33.87456      -33.87456       1.6250397    
    680000   2033.3432     -33.232205     -34.809186     -34.809186      1.5769814    
    681000   2155.4137     -32.072213     -33.743867     -33.743867      1.6716545    
    682000   1950.2494     -33.144947     -34.657484     -34.657484      1.5125371    
    683000   2046.5763     -32.468532     -34.055777     -34.055777      1.5872445    
    684000   2015.0701     -32.696637     -34.259446     -34.259446      1.5628095    
    685000   2065.4289     -33.281353     -34.883218     -34.883218      1.6018659    
    686000   1995.0009     -31.538983     -33.086228     -33.086228      1.5472446    
    687000   2109.2535     -33.4116       -35.047454     -35.047454      1.6358544    
    688000   1939.2782     -32.003177     -33.507206     -33.507206      1.5040283    
    689000   2074.8154     -32.143749     -33.752895     -33.752895      1.6091456    
    690000   2084.3949     -33.148711     -34.765286     -34.765286      1.6165751    
    691000   2092.5135     -31.264633     -32.887504     -32.887504      1.6228716    
    692000   2048.4803     -32.589843     -34.178564     -34.178564      1.5887212    
    693000   2092.4375     -31.41314      -33.035953     -33.035953      1.6228127    
    694000   2154.6761     -32.336709     -34.007791     -34.007791      1.6710825    
    695000   2082.2878     -32.441668     -34.056609     -34.056609      1.614941     
    696000   1994.0377     -32.901569     -34.448066     -34.448066      1.5464976    
    697000   2002.3355     -32.861701     -34.414634     -34.414634      1.5529331    
    698000   2035.252      -31.158428     -32.73689      -32.73689       1.5784618    
    699000   1973.5349     -33.47038      -35.000977     -35.000977      1.5305965    
    700000   2048.0589     -32.563774     -34.152168     -34.152168      1.5883943    
    701000   2116.7587     -32.720826     -34.362501     -34.362501      1.6416752    
    702000   2107.2662     -32.527306     -34.16162      -34.16162       1.6343132    
    703000   2067.6138     -32.476403     -34.079964     -34.079964      1.6035603    
    704000   2049.0271     -32.805079     -34.394225     -34.394225      1.5891452    
    705000   2044.798      -32.366726     -33.952591     -33.952591      1.5858653    
    706000   2076.417      -33.14363      -34.754018     -34.754018      1.6103878    
    707000   2152.8907     -32.744573     -34.414271     -34.414271      1.6696978    
    708000   2155.4591     -32.469884     -34.141573     -34.141573      1.6716898    
    709000   2150.9464     -33.182625     -34.850815     -34.850815      1.6681899    
    710000   2159.2937     -32.503725     -34.178389     -34.178389      1.6746637    
    711000   2151.8562     -33.292805     -34.9617       -34.9617        1.6688955    
    712000   2142.8894     -32.540128     -34.20207      -34.20207       1.6619411    
    713000   2167.6356     -32.437999     -34.119133     -34.119133      1.6811334    
    714000   2132.0701     -33.178856     -34.832406     -34.832406      1.6535502    
    715000   2186.6113     -32.467244     -34.163094     -34.163094      1.6958502    
    716000   2165.3425     -33.150642     -34.829997     -34.829997      1.6793549    
    717000   2105.1559     -32.549793     -34.182469     -34.182469      1.6326766    
    718000   2197.7946     -32.781011     -34.485534     -34.485534      1.7045235    
    719000   2104.63       -32.981831     -34.6141       -34.6141        1.6322687    
    720000   2187.2945     -32.540949     -34.237329     -34.237329      1.69638      
    721000   2250.4595     -33.071125     -34.816493     -34.816493      1.7453683    
    722000   2233.1086     -32.584484     -34.316396     -34.316396      1.7319116    
    723000   2121.2789     -32.34779      -33.992971     -33.992971      1.6451809    
    724000   2123.7583     -32.922683     -34.569786     -34.569786      1.6471038    
    725000   2144.6718     -31.793802     -33.457126     -33.457126      1.6633235    
    726000   2238.7602     -32.97377      -34.710065     -34.710065      1.7362948    
    727000   2093.0843     -31.548075     -33.17139      -33.17139       1.6233143    
    728000   2246.5285     -32.53841      -34.280729     -34.280729      1.7423196    
    729000   2264.8857     -32.996605     -34.753162     -34.753162      1.7565567    
    730000   2095.9823     -31.519443     -33.145005     -33.145005      1.6255619    
    731000   2228.7054     -33.101939     -34.830436     -34.830436      1.7284967    
    732000   2147.1178     -31.127772     -32.792993     -32.792993      1.6652205    
    733000   2251.5221     -33.09535      -34.841543     -34.841543      1.7461925    
    734000   2164.299      -32.403186     -34.081732     -34.081732      1.6785456    
    735000   2305.7306     -32.628024     -34.416259     -34.416259      1.7882344    
    736000   2131.5131     -32.64143      -34.294548     -34.294548      1.6531182    
    737000   2209.7422     -32.342584     -34.056373     -34.056373      1.7137896    
    738000   2261.5497     -32.965846     -34.719816     -34.719816      1.7539695    
    739000   2190.1477     -32.325589     -34.024182     -34.024182      1.6985928    
    740000   2281.432      -32.220135     -33.989524     -33.989524      1.7693894    
    741000   2235.4098     -32.715416     -34.449113     -34.449113      1.7336964    
    742000   2128.1836     -32.208154     -33.85869      -33.85869       1.6505359    
    743000   2218.8857     -32.205785     -33.926666     -33.926666      1.7208809    
    744000   2297.1911     -32.349236     -34.130847     -34.130847      1.7816115    
    745000   2312.5766     -32.198866     -33.99241      -33.99241       1.7935439    
    746000   2316.8905     -32.834761     -34.631651     -34.631651      1.7968896    
    747000   2215.0049     -32.025155     -33.743026     -33.743026      1.7178711    
    748000   2216.2715     -32.501278     -34.220132     -34.220132      1.7188534    
    749000   2245.579      -31.668364     -33.409947     -33.409947      1.7415832    
    750000   2207.3831     -33.005261     -34.717221     -34.717221      1.71196      
    751000   2231.6454     -31.277545     -33.008322     -33.008322      1.7307768    
    752000   2331.7884     -32.916751     -34.725195     -34.725195      1.8084438    
    753000   2286.689      -32.075125     -33.848592     -33.848592      1.7734665    
    754000   2359.29       -32.570048     -34.399821     -34.399821      1.829773     
    755000   2260.6367     -32.013419     -33.766681     -33.766681      1.7532614    
    756000   2236.7866     -32.382165     -34.116929     -34.116929      1.7347642    
    757000   2252.7404     -32.376301     -34.123439     -34.123439      1.7471373    
    758000   2284.4505     -32.282943     -34.054673     -34.054673      1.7717305    
    759000   2325.3773     -32.867731     -34.671203     -34.671203      1.8034716    
    760000   2200.6278     -32.302898     -34.009619     -34.009619      1.7067208    
    761000   2328.6094     -32.940776     -34.746755     -34.746755      1.8059783    
    762000   2232.4249     -32.513899     -34.24528      -34.24528       1.7313814    
    763000   2246.9734     -32.700453     -34.443118     -34.443118      1.7426646    
    764000   2261.9998     -32.1261       -33.880419     -33.880419      1.7543185    
    765000   2334.3819     -31.703374     -33.513829     -33.513829      1.8104553    
    766000   2319.729      -32.531847     -34.330938     -34.330938      1.799091     
    767000   2311.339      -31.527177     -33.319761     -33.319761      1.7925841    
    768000   2425.2492     -32.629899     -34.510828     -34.510828      1.8809284    
    769000   2316.0923     -31.998532     -33.794802     -33.794802      1.7962706    
    770000   2249.3788     -32.577326     -34.321857     -34.321857      1.7445302    
    771000   2317.2554     -32.84572      -34.642892     -34.642892      1.7971727    
    772000   2234.5325     -32.257943     -33.990959     -33.990959      1.7330159    
    773000   2305.2997     -31.770136     -33.558037     -33.558037      1.7879003    
    774000   2489.2376     -32.333618     -34.264173     -34.264173      1.9305553    
    775000   2303.9015     -32.440724     -34.22754      -34.22754       1.7868159    
    776000   2313.8535     -32.891697     -34.686231     -34.686231      1.7945342    
    777000   2329.1336     -32.059192     -33.865577     -33.865577      1.8063848    
    778000   2346.6824     -31.530262     -33.350257     -33.350257      1.819995     
    779000   2275.0639     -32.900482     -34.664933     -34.664933      1.7644506    
    780000   2136.8564     -31.37392      -33.031182     -33.031182      1.6572622    
    781000   2490.9667     -32.513856     -34.445752     -34.445752      1.9318963    
    782000   2263.6029     -32.312422     -34.067984     -34.067984      1.7555618    
    783000   2148.9046     -31.938491     -33.605097     -33.605097      1.6666063    
    784000   2517.1851     -32.24958      -34.20181      -34.20181       1.9522303    
    785000   2289.3844     -32.129146     -33.904703     -33.904703      1.775557     
    786000   2451.9927     -32.054658     -33.956328     -33.956328      1.9016696    
    787000   2376.1029     -31.469538     -33.312351     -33.312351      1.8428125    
    788000   2341.8441     -32.237934     -34.054176     -34.054176      1.8162426    
    789000   2258.6535     -31.326662     -33.078385     -33.078385      1.7517232    
    790000   2419.5241     -32.787106     -34.663594     -34.663594      1.8764882    
    791000   2199.9352     -32.117483     -33.823667     -33.823667      1.7061836    
    792000   2549.1455     -31.409364     -33.386381     -33.386381      1.9770175    
    793000   2366.3718     -33.01707      -34.852336     -34.852336      1.8352653    
    794000   2452.1467     -30.669655     -32.571444     -32.571444      1.901789     
    795000   2423.7826     -32.511791     -34.391582     -34.391582      1.8797909    
    796000   2308.3131     -31.307707     -33.097945     -33.097945      1.7902373    
    797000   2474.4778     -31.733278     -33.652386     -33.652386      1.9191081    
    798000   2398.2471     -31.490606     -33.350593     -33.350593      1.8599866    
    799000   2213.837      -32.084985     -33.80195      -33.80195       1.7169653    
    800000   2431.3188     -31.613999     -33.499635     -33.499635      1.8856357    
    801000   2297.2964     -31.581016     -33.36271      -33.36271       1.7816932    
    802000   2376.8814     -32.70842      -34.551836     -34.551836      1.8434162    
    803000   2428.1168     -31.217898     -33.10105      -33.10105       1.8831524    
    804000   2340.0263     -31.91698      -33.731813     -33.731813      1.8148329    
    805000   2444.6859     -32.45782      -34.353823     -34.353823      1.8960027    
    806000   2394.9631     -32.684113     -34.541552     -34.541552      1.8574397    
    807000   2424.6289     -31.911294     -33.791741     -33.791741      1.8804473    
    808000   2469.3851     -32.332051     -34.247209     -34.247209      1.9151585    
    809000   2403.5059     -31.931121     -33.795186     -33.795186      1.8640651    
    810000   2403.2928     -31.749813     -33.613713     -33.613713      1.8638999    
    811000   2475.587      -32.515199     -34.435168     -34.435168      1.9199684    
    812000   2647.1297     -30.397865     -32.450876     -32.450876      2.0530102    
    813000   2342.8763     -33.059373     -34.876416     -34.876416      1.8170431    
    814000   2490.5141     -31.308637     -33.240182     -33.240182      1.9315453    
    815000   2536.4495     -32.019679     -33.98685      -33.98685       1.967171     
    816000   2349.9215     -32.232935     -34.055442     -34.055442      1.8225072    
    817000   2487.5821     -31.384721     -33.313992     -33.313992      1.9292713    
    818000   2473.5257     -33.381876     -35.300246     -35.300246      1.9183698    
    819000   2269.5411     -30.855265     -32.615432     -32.615432      1.7601673    
    820000   2570.4458     -32.501684     -34.495221     -34.495221      1.9935372    
    821000   2263.1917     -31.385629     -33.140872     -33.140872      1.7552429    
    822000   2567.2716     -31.77714      -33.768216     -33.768216      1.9910754    
    823000   2555.3926     -32.141484     -34.123347     -34.123347      1.9818625    
    824000   2686.0805     -30.932674     -33.015893     -33.015893      2.083219     
    825000   2468.4182     -32.4238       -34.338209     -34.338209      1.9144086    
    826000   2292.4189     -30.595601     -32.373511     -32.373511      1.7779104    
    827000   2646.6018     -32.669326     -34.721927     -34.721927      2.0526008    
    828000   2492.8033     -30.941709     -32.87503      -32.87503       1.9333207    
    829000   2715.7389     -31.654474     -33.760694     -33.760694      2.1062208    
    830000   2300.7308     -32.86161      -34.645966     -34.645966      1.7843568    
    831000   2456.3842     -30.542194     -32.44727      -32.44727       1.9050755    
    832000   2568.5485     -32.157856     -34.149922     -34.149922      1.9920657    
    833000   2405.3498     -32.090625     -33.95612      -33.95612       1.8654951    
    834000   2367.665      -30.501815     -32.338084     -32.338084      1.8362683    
    835000   2538.1855     -33.34995      -35.318468     -35.318468      1.9685174    
    836000   2341.5625     -30.118868     -31.934893     -31.934893      1.8160242    
    837000   2566.8641     -32.399522     -34.390281     -34.390281      1.9907594    
    838000   2606.0727     -33.33964      -35.360808     -35.360808      2.021168     
    839000   2365.935      -32.422926     -34.257852     -34.257852      1.8349266    
    840000   2536.977      -31.418956     -33.386536     -33.386536      1.9675801    
    841000   2215.6069     -32.289833     -34.008171     -34.008171      1.718338     
    842000   2567.7764     -33.019545     -35.011012     -35.011012      1.9914669    
    843000   2290.6049     -32.91602      -34.692523     -34.692523      1.7765035    
    844000   2568.3629     -32.606385     -34.598307     -34.598307      1.9919218    
    845000   2423.3047     -32.356255     -34.235675     -34.235675      1.8794203    
    846000   2497.635      -31.817013     -33.754081     -33.754081      1.9370679    
    847000   2474.2964     -31.461679     -33.380647     -33.380647      1.9189675    
    848000   2606.8208     -32.884489     -34.906237     -34.906237      2.0217482    
    849000   2813.8313     -32.090478     -34.272776     -34.272776      2.1822974    
    850000   2234.3417     -28.498046     -30.230914     -30.230914      1.732868     
    851000   2497.0437     -33.343817     -35.280427     -35.280427      1.9366094    
    852000   2614.0149     -32.167197     -34.194525     -34.194525      2.0273277    
    853000   2581.0753     -28.652366     -30.654147     -30.654147      2.001781     
    854000   2434.9333     -32.876595     -34.765034     -34.765034      1.888439     
    855000   2621.6577     -32.61038      -34.643635     -34.643635      2.0332551    
    856000   2648.8002     -31.464373     -33.518679     -33.518679      2.0543058    
    857000   2380.4685     -31.046547     -32.892746     -32.892746      1.8461982    
    858000   2595.2656     -33.201682     -35.214468     -35.214468      2.0127865    
    859000   2686.8208     -32.135702     -34.219495     -34.219495      2.0837931    
    860000   2533.8333     -31.793486     -33.758628     -33.758628      1.965142     
    861000   2400.1801     -29.147613     -31.009099     -31.009099      1.8614858    
    862000   2586.9528     -32.193193     -34.199532     -34.199532      2.0063394    
    863000   2451.5511     -31.06209      -32.963417     -32.963417      1.9013271    
    864000   2431.2733     -31.371003     -33.256603     -33.256603      1.8856004    
    865000   2733.443      -32.504791     -34.624743     -34.624743      2.1199515    
    866000   2663.7489     -33.962934     -36.028833     -36.028833      2.0658994    
    867000   2568.7124     -33.941426     -35.933619     -35.933619      1.9921928    
    868000   2623.7658     -32.814657     -34.849547     -34.849547      2.0348901    
    869000   2448.9813     -33.046201     -34.945536     -34.945536      1.8993341    
[...]
   1890000   625.74299     -36.597658     -37.08296      -37.08296       0.48530178   
   1891000   620.01905     -36.557078     -37.037941     -37.037941      0.48086252   
   1892000   619.99311     -36.545761     -37.026603     -37.026603      0.48084239   
   1893000   619.06864     -36.528233     -37.008359     -37.008359      0.48012541   
   1894000   619.36886     -36.57439      -37.054748     -37.054748      0.48035825   
   1895000   621.38518     -36.588703     -37.070625     -37.070625      0.48192203   
   1896000   611.303       -36.603175     -37.077278     -37.077278      0.47410268   
   1897000   610.08483     -36.611991     -37.085149     -37.085149      0.47315792   
   1898000   602.22044     -36.580568     -37.047627     -37.047627      0.4670586    
   1899000   594.93891     -36.578686     -37.040097     -37.040097      0.46141134   
   1900000   600.89662     -36.542436     -37.008467     -37.008467      0.4660319    
   1901000   604.15562     -36.568264     -37.036824     -37.036824      0.46855946   
   1902000   603.26665     -36.61646      -37.08433      -37.08433       0.46787001   
   1903000   592.21802     -36.60999      -37.069291     -37.069291      0.45930112   
   1904000   593.65575     -36.592417     -37.052833     -37.052833      0.46041617   
   1905000   598.8504      -36.630383     -37.094828     -37.094828      0.46444494   
   1906000   588.94592     -36.658401     -37.115165     -37.115165      0.45676341   
   1907000   583.44976     -36.679439     -37.13194      -37.13194       0.45250081   
   1908000   583.25471     -36.609633     -37.061983     -37.061983      0.45234953   
   1909000   576.36279     -36.662933     -37.109937     -37.109937      0.44700443   
   1910000   575.56763     -36.686413     -37.132801     -37.132801      0.44638774   
   1911000   568.00996     -36.681438     -37.121965     -37.121965      0.4405263    
   1912000   551.25489     -36.664219     -37.09175      -37.09175       0.42753172   
   1913000   551.00497     -36.664532     -37.09187      -37.09187       0.4273379    
   1914000   542.28569     -36.626999     -37.047575     -37.047575      0.42057556   
   1915000   536.42938     -36.6104       -37.026434     -37.026434      0.41603364   
   1916000   549.45679     -36.651484     -37.077621     -37.077621      0.42613719   
   1917000   544.67188     -36.691389     -37.113815     -37.113815      0.4224262    
   1918000   542.93985     -36.702284     -37.123367     -37.123367      0.4210829    
   1919000   535.97022     -36.718615     -37.134292     -37.134292      0.41567753   
   1920000   523.58378     -36.684519     -37.09059      -37.09059       0.40607109   
   1921000   519.03534     -36.679098     -37.081642     -37.081642      0.4025435    
   1922000   528.23902     -36.691972     -37.101654     -37.101654      0.40968151   
   1923000   536.73777     -36.673993     -37.090266     -37.090266      0.41627281   
   1924000   546.94406     -36.691322     -37.115511     -37.115511      0.42418841   
   1925000   545.81076     -36.684775     -37.108085     -37.108085      0.42330947   
   1926000   536.79905     -36.683021     -37.099341     -37.099341      0.41632034   
   1927000   527.74661     -36.652234     -37.061533     -37.061533      0.40929962   
   1928000   517.28968     -36.66482      -37.06601      -37.06601       0.40118963   
   1929000   503.83959     -36.702307     -37.093065     -37.093065      0.39075827   
   1930000   500.00716     -36.675443     -37.063229     -37.063229      0.38778599   
   1931000   495.49278     -36.726787     -37.111072     -37.111072      0.38428481   
   1932000   493.46638     -36.71685      -37.099563     -37.099563      0.38271322   
   1933000   493.02488     -36.764916     -37.147286     -37.147286      0.3823708    
   1934000   501.49957     -36.775147     -37.16409      -37.16409       0.38894344   
   1935000   495.94315     -36.753155     -37.137789     -37.137789      0.3846341    
   1936000   485.62359     -36.737003     -37.113633     -37.113633      0.37663065   
   1937000   481.83171     -36.71089      -37.08458      -37.08458       0.37368982   
   1938000   472.09976     -36.673134     -37.039276     -37.039276      0.3661421    
   1939000   477.27067     -36.701832     -37.071984     -37.071984      0.37015246   
   1940000   474.93303     -36.756764     -37.125103     -37.125103      0.36833947   
   1941000   470.8011      -36.762305     -37.12744      -37.12744       0.36513491   
   1942000   473.91268     -36.786223     -37.153771     -37.153771      0.36754813   
   1943000   469.82509     -36.813314     -37.177692     -37.177692      0.36437796   
   1944000   467.27503     -36.815466     -37.177866     -37.177866      0.36240023   
   1945000   465.18042     -36.819702     -37.180477     -37.180477      0.36077573   
   1946000   458.58084     -36.81419      -37.169848     -37.169848      0.35565735   
   1947000   455.56536     -36.808954     -37.162272     -37.162272      0.35331866   
   1948000   451.57923     -36.793697     -37.143924     -37.143924      0.35022718   
   1949000   448.08079     -36.784435     -37.131949     -37.131949      0.34751392   
   1950000   456.62115     -36.77544      -37.129577     -37.129577      0.35413749   
   1951000   455.99591     -36.7943       -37.147952     -37.147952      0.35365259   
   1952000   447.24025     -36.801193     -37.148055     -37.148055      0.34686204   
   1953000   444.9689      -36.786144     -37.131244     -37.131244      0.34510047   
   1954000   436.53663     -36.810325     -37.148886     -37.148886      0.33856073   
   1955000   426.41367     -36.822238     -37.152948     -37.152948      0.33070976   
   1956000   423.36871     -36.832173     -37.160521     -37.160521      0.3283482    
   1957000   427.75477     -36.850257     -37.182007     -37.182007      0.33174986   
   1958000   427.6811      -36.857845     -37.189538     -37.189538      0.33169272   
   1959000   426.22351     -36.847637     -37.178199     -37.178199      0.33056228   
   1960000   424.69017     -36.840467     -37.16984      -37.16984       0.32937308   
   1961000   421.22799     -36.836308     -37.162996     -37.162996      0.32668795   
   1962000   415.95131     -36.826098     -37.148693     -37.148693      0.32259556   
   1963000   408.98909     -36.831332     -37.148528     -37.148528      0.31719593   
   1964000   405.15978     -36.837979     -37.152205     -37.152205      0.31422607   
   1965000   403.70264     -36.846827     -37.159923     -37.159923      0.31309597   
   1966000   402.42786     -36.853983     -37.16609      -37.16609       0.3121073    
   1967000   399.38424     -36.870498     -37.180244     -37.180244      0.30974679   
   1968000   398.51678     -36.861552     -37.170626     -37.170626      0.30907402   
   1969000   397.96628     -36.850884     -37.159531     -37.159531      0.30864707   
   1970000   394.04755     -36.843223     -37.148831     -37.148831      0.30560786   
   1971000   383.47107     -36.853895     -37.151301     -37.151301      0.29740515   
   1972000   373.41322     -36.851754     -37.141359     -37.141359      0.28960468   
   1973000   373.58145     -36.88547      -37.175205     -37.175205      0.28973515   
   1974000   370.08561     -36.920244     -37.207268     -37.207268      0.28702392   
   1975000   372.4519      -36.93844      -37.227299     -37.227299      0.28885912   
   1976000   369.92041     -36.936301     -37.223197     -37.223197      0.28689579   
   1977000   369.9978      -36.925715     -37.212671     -37.212671      0.28695581   
   1978000   365.41285     -36.921085     -37.204484     -37.204484      0.28339991   
   1979000   361.88811     -36.918837     -37.199504     -37.199504      0.28066626   
   1980000   357.76212     -36.920441     -37.197907     -37.197907      0.2774663    
   1981000   356.68597     -36.94489      -37.221521     -37.221521      0.27663168   
   1982000   352.85673     -36.938994     -37.212656     -37.212656      0.27366187   
   1983000   346.98681     -36.92495      -37.194059     -37.194059      0.2691094    
   1984000   352.9935      -36.922746     -37.196514     -37.196514      0.27376794   
   1985000   331.08963     -36.914205     -37.170986     -37.170986      0.25678016   
   1986000   365.21724     -37.014052     -37.2973       -37.2973        0.2832482    
   1987000   341.1225      -37.001563     -37.266124     -37.266124      0.26456126   
   1988000   350.70576     -36.935189     -37.207183     -37.207183      0.27199367   
   1989000   324.16798     -36.946667     -37.198079     -37.198079      0.251412     
   1990000   336.97016     -37.003558     -37.264899     -37.264899      0.26134087   
   1991000   330.26178     -36.944609     -37.200747     -37.200747      0.25613811   
   1992000   325.47771     -36.960381     -37.212809     -37.212809      0.25242778   
   1993000   321.324       -36.970392     -37.219598     -37.219598      0.24920632   
   1994000   312.15788     -37.029969     -37.272067     -37.272067      0.24209744   
   1995000   336.20554     -36.988294     -37.249042     -37.249042      0.26074786   
   1996000   323.11819     -36.968419     -37.219017     -37.219017      0.25059783   
   1997000   319.89546     -36.99482      -37.242919     -37.242919      0.2480984    
   1998000   294.57069     -37.04641      -37.274867     -37.274867      0.2284575    
   1999000   314.36111     -36.947508     -37.191314     -37.191314      0.24380618   
   2000000   297.72838     -36.955364     -37.186271     -37.186271      0.23090648   
   2001000   298.46096     -37.044541     -37.276016     -37.276016      0.23147464   
   2002000   292.116       -36.968435     -37.194989     -37.194989      0.22655374   
   2003000   295.48401     -37.021456     -37.250622     -37.250622      0.22916584   
   2004000   284.4805      -37.058716     -37.279348     -37.279348      0.22063194   
   2005000   284.56776     -37.028315     -37.249014     -37.249014      0.22069962   
   2006000   280.4798      -37.035473     -37.253002     -37.253002      0.21752916   
   2007000   279.56943     -37.043339     -37.260162     -37.260162      0.21682311   
   2008000   274.7639      -37.021473     -37.234569     -37.234569      0.21309613   
   2009000   278.62237     -37.069483     -37.285571     -37.285571      0.21608861   
   2010000   273.38232     -37.061504     -37.273529     -37.273529      0.21202463   
   2011000   275.47766     -37.066288     -37.279938     -37.279938      0.2136497    
   2012000   266.04525     -37.07777      -37.284104     -37.284104      0.20633429   
   2013000   260.30105     -37.062491     -37.264371     -37.264371      0.20187931   
   2014000   257.69607     -37.076849     -37.276708     -37.276708      0.19985899   
   2015000   255.99562     -37.082204     -37.280744     -37.280744      0.19854019   
   2016000   251.79579     -37.063532     -37.258815     -37.258815      0.19528296   
   2017000   246.04586     -37.081922     -37.272746     -37.272746      0.19082354   
   2018000   245.37563     -37.07669      -37.266994     -37.266994      0.19030374   
   2019000   240.18384     -37.082313     -37.26859      -37.26859       0.18627719   
   2020000   242.33869     -37.092168     -37.280116     -37.280116      0.1879484    
   2021000   237.61554     -37.098474     -37.282759     -37.282759      0.18428531   
   2022000   232.37787     -37.113882     -37.294106     -37.294106      0.18022318   
   2023000   229.46529     -37.116723     -37.294687     -37.294687      0.1779643    
   2024000   231.08386     -37.121136     -37.300355     -37.300355      0.1792196    
   2025000   227.06769     -37.126986     -37.303091     -37.303091      0.17610481   
   2026000   221.23422     -37.122917     -37.294498     -37.294498      0.17158061   
   2027000   218.27838     -37.124361     -37.29365      -37.29365       0.16928817   
   2028000   218.4623      -37.12615      -37.295581     -37.295581      0.16943081   
   2029000   214.40829     -37.126374     -37.292661     -37.292661      0.16628668   
   2030000   210.55848     -37.147471     -37.310772     -37.310772      0.16330091   
   2031000   206.69985     -37.149597     -37.309905     -37.309905      0.16030831   
   2032000   204.06606     -37.149917     -37.308183     -37.308183      0.15826565   
   2033000   200.91319     -37.164989     -37.32081      -37.32081       0.15582041   
   2034000   199.28987     -37.174176     -37.328737     -37.328737      0.15456142   
   2035000   194.89709     -37.178699     -37.329854     -37.329854      0.15115456   
   2036000   195.02816     -37.1691       -37.320356     -37.320356      0.15125621   
   2037000   188.18323     -37.167575     -37.313523     -37.313523      0.14594755   
   2038000   184.74168     -37.180494     -37.323773     -37.323773      0.14327842   
   2039000   182.09046     -37.180647     -37.32187      -37.32187       0.14122224   
   2040000   180.01135     -37.193519     -37.333128     -37.333128      0.13960976   
   2041000   175.1717      -37.190819     -37.326675     -37.326675      0.13585631   
   2042000   173.13547     -37.201402     -37.335679     -37.335679      0.1342771    
   2043000   171.44884     -37.203653     -37.336622     -37.336622      0.13296901   
   2044000   167.57516     -37.208002     -37.337967     -37.337967      0.12996474   
   2045000   165.18521     -37.211461     -37.339572     -37.339572      0.12811118   
   2046000   159.37307     -37.205628     -37.329231     -37.329231      0.12360351   
   2047000   159.14695     -37.218524     -37.341952     -37.341952      0.12342815   
   2048000   155.511       -37.220324     -37.340932     -37.340932      0.12060825   
   2049000   152.39137     -37.229938     -37.348127     -37.348127      0.11818878   
   2050000   150.86921     -37.237342     -37.35435      -37.35435       0.11700826   
   2051000   146.46863     -37.235524     -37.34912      -37.34912       0.11359533   
   2052000   144.38224     -37.24518      -37.357157     -37.357157      0.11197721   
   2053000   141.85526     -37.245536     -37.355554     -37.355554      0.11001739   
   2054000   138.57634     -37.247581     -37.355056     -37.355056      0.10747439   
   2055000   134.42251     -37.249724     -37.353977     -37.353977      0.10425284   
   2056000   131.98919     -37.256233     -37.358599     -37.358599      0.10236565   
   2057000   130.90364     -37.265211     -37.366735     -37.366735      0.10152374   
   2058000   126.24503     -37.274768     -37.372678     -37.372678      0.097910707  
   2059000   124.32013     -37.275666     -37.372084     -37.372084      0.096417832  
   2060000   119.91624     -37.275352     -37.368354     -37.368354      0.093002345  
   2061000   118.12461     -37.279967     -37.37158      -37.37158       0.091612822  
   2062000   114.1505      -37.287349     -37.375879     -37.375879      0.088530658  
   2063000   111.19893     -37.295251     -37.381492     -37.381492      0.08624154   
   2064000   107.61966     -37.298722     -37.382188     -37.382188      0.083465596  
   2065000   105.54836     -37.303691     -37.38555      -37.38555       0.081859175  
   2066000   101.64094     -37.301582     -37.380411     -37.380411      0.078828734  
   2067000   98.813758     -37.311107     -37.387743     -37.387743      0.076636084  
   2068000   95.728407     -37.315327     -37.38957      -37.38957       0.074243207  
   2069000   92.796498     -37.319002     -37.390971     -37.390971      0.071969333  
   2070000   90.344574     -37.322347     -37.392415     -37.392415      0.070067716  
   2071000   86.796843     -37.327219     -37.394535     -37.394535      0.067316235  
   2072000   84.366351     -37.330471     -37.395902     -37.395902      0.06543124   
   2073000   81.166605     -37.338121     -37.40107      -37.40107       0.062949643  
   2074000   78.06592      -37.338698     -37.399243     -37.399243      0.060544873  
   2075000   75.131688     -37.346629     -37.404899     -37.404899      0.058269197  
   2076000   72.516563     -37.350874     -37.407115     -37.407115      0.056241008  
   2077000   69.505792     -37.353976     -37.407882     -37.407882      0.053905973  
   2078000   66.210617     -37.35992      -37.41127      -37.41127       0.051350364  
   2079000   62.983108     -37.364045     -37.412892     -37.412892      0.048847234  
   2080000   60.488953     -37.366175     -37.413088     -37.413088      0.046912865  
   2081000   57.175271     -37.373371     -37.417714     -37.417714      0.044342903  
   2082000   54.133539     -37.37745      -37.419433     -37.419433      0.041983855  
   2083000   51.094245     -37.380386     -37.420013     -37.420013      0.039626697  
   2084000   48.187605     -37.385776     -37.423148     -37.423148      0.037372421  
   2085000   45.050356     -37.389529     -37.424469     -37.424469      0.034939293  
   2086000   42.289778     -37.393988     -37.426786     -37.426786      0.032798297  
   2087000   39.267993     -37.399929     -37.430383     -37.430383      0.030454719  
   2088000   36.173947     -37.402987     -37.431042     -37.431042      0.028055098  
   2089000   33.36142      -37.406547     -37.432421     -37.432421      0.025873812  
   2090000   30.168996     -37.411668     -37.435066     -37.435066      0.023397893  
   2091000   27.100709     -37.416669     -37.437687     -37.437687      0.021018249  
   2092000   24.19542      -37.420088     -37.438853     -37.438853      0.018765021  
   2093000   21.156352     -37.424022     -37.44043      -37.44043       0.016408039  
   2094000   18.203726     -37.428603     -37.442721     -37.442721      0.014118097  
   2095000   15.213294     -37.432581     -37.44438      -37.44438       0.011798836  
   2096000   12.161189     -37.436368     -37.4458       -37.4458        0.0094317424 
   2097000   9.1915504     -37.440235     -37.447363     -37.447363      0.0071286068 
   2098000   6.1811883     -37.443853     -37.448647     -37.448647      0.0047938878 
   2099000   3.1826798     -37.447045     -37.449513     -37.449513      0.0024683619 
   2100000   0.1761492     -37.450057     -37.450194     -37.450194      0.00013661443
   2100047   0.036357743   -37.450204     -37.450232     -37.450232      2.8197642e-05
Loop time of 24.5208 on 1 procs for 1000000 steps with 7 atoms

Performance: 352.354 ns/day, 0.068 hours/ns, 40781.669 timesteps/s, 285.472 katom-step/s
98.9% CPU use with 1 MPI tasks x 1 OpenMP threads

MPI task timing breakdown:
Section |  min time  |  avg time  |  max time  |%varavg| %total
---------------------------------------------------------------
Pair    | 18.306     | 18.306     | 18.306     |   0.0 | 74.65
Neigh   | 2.3682     | 2.3682     | 2.3682     |   0.0 |  9.66
Comm    | 1.2368     | 1.2368     | 1.2368     |   0.0 |  5.04
Output  | 0.22096    | 0.22096    | 0.22096    |   0.0 |  0.90
Modify  | 1.8081     | 1.8081     | 1.8081     |   0.0 |  7.37
Other   |            | 0.581      |            |       |  2.37

Nlocal:              7 ave           7 max           7 min
Histogram: 1 0 0 0 0 0 0 0 0 0
Nghost:            131 ave         131 max         131 min
Histogram: 1 0 0 0 0 0 0 0 0 0
Neighs:              0 ave           0 max           0 min
Histogram: 1 0 0 0 0 0 0 0 0 0
FullNghs:           66 ave          66 max          66 min
Histogram: 1 0 0 0 0 0 0 0 0 0

Total # of neighbors = 66
Ave neighs/atom = 9.4285714
Neighbor list builds = 13823
Dangerous builds = 0
write_restart 	./endconf/endconf*3.restart
System init for write_restart ...

Total wall time: 0:00:52
