LAMMPS (7 Feb 2024 - Update 1)
OMP_NUM_THREADS environment is not set. Defaulting to 1 thread. (src/comm.cpp:98)
  using 1 OpenMP thread(s) per MPI task
#============Initialization=================
units 			metal
atom_style 		atomic
boundary 		p p p

############################################
#              CLI Variables               #
############################################
variable 		seed index 200093          #
variable 		N index 21                 #
variable 		iter index 10000000        #
variable 		iterther index 1000000     #
variable 		iexport index 1000000      #
variable 		tempchauf index 4000       #
variable 		Tdamp index 0.001          #
variable 		timestep index 0.0001      #
variable 		box_size index 60		   #
############################################
############################################
#=========Simulation box definition=========
lattice 		sc 1.0
Lattice spacing in x,y,z = 1 1 1
region 			bigbox block 0 ${box_size} 0 ${box_size} 0 ${box_size}
region 			bigbox block 0 60 0 ${box_size} 0 ${box_size}
region 			bigbox block 0 60 0 60 0 ${box_size}
region 			bigbox block 0 60 0 60 0 60
create_box 		1 bigbox
Created orthogonal box = (0 0 0) to (60 60 60)
  1 by 1 by 1 MPI processor grid

#==================Atoms====================
region 			safezone block 5 10 5 10 5 10 units box
create_atoms 	1 random ${N} ${seed} safezone
create_atoms 	1 random 21 ${seed} safezone
create_atoms 	1 random 21 200093 safezone
Created 21 atoms
  using lattice units in orthogonal box = (0 0 0) to (60 60 60)
  create_atoms CPU = 0.000 seconds
labelmap 		atom 1 C
mass 			* 12.01



#==========Velocity initialization==========
velocity 		all create 0.0000001 1563967 rot yes dist gaussian

#======Pair style for atom interactions=============
pair_style 		airebo 1.8 1 1
pair_coeff 		* * CH.airebo C
Reading airebo potential file CH.airebo with DATE: 2011-10-25

#==============Neighbor selection===================
neighbor 		0.3 bin
neigh_modify 	every 1 delay 0 check yes



#==============Custom Wall force====================
#==========Wall with harmonic potential=============
#variable       k equal 10.0

#fix             xlo_wall all wall/harmonic xlo EDGE v_k 1.0 0.7
#fix             xhi_wall all wall/harmonic xhi EDGE v_k 1.0 0.7
#fix             ylo_wall all wall/harmonic ylo EDGE v_k 1.0 0.7
#fix             yhi_wall all wall/harmonic yhi EDGE v_k 1.0 0.7
#fix             zlo_wall all wall/harmonic zlo EDGE v_k 1.0 0.7
#fix             zhi_wall all wall/harmonic zhi EDGE v_k 1.0 0.7



#=====================Timestep======================
timestep 		${timestep}
timestep 		0.0001

#===============Define dump command=================
dump 			1 all cfg 100000 ./dump/dump.tensile_*.cfg mass type xs ys zs vx vy vz id

#========System temperature printing info===========
thermo_style 	custom step temp etotal epair pe ke
thermo 			${iexport}	# 1'000'000
thermo 			1000000	



#====================CRC Cycle======================

#=============Condensation et chauffe===============

# Minimize during the heating phase
#min_style       sd
#minimize        1.0e-5 1.0e-7 500 1000

fix 			1 all nve
fix 			2 all temp/berendsen 0.0 ${tempchauf} ${Tdamp}
fix 			2 all temp/berendsen 0.0 4000 ${Tdamp}
fix 			2 all temp/berendsen 0.0 4000 0.001
fix             3 all momentum 1 linear 1 1 1 angular rescale

run 			${iter}
run 			10000000
Neighbor list info ...
  update: every = 1 steps, delay = 0 steps, check = yes
  max neighbors/atom: 2000, page size: 100000
  master list distance cutoff = 8.116371
  ghost atom cutoff = 8.116371
  binsize = 4.0581855, bins = 15 15 15
  1 neighbor lists, perpetual/occasional/extra = 1 0 0
  (1) pair airebo, perpetual
      attributes: full, newton on, ghost
      pair build: full/bin/ghost
      stencil: full/ghost/bin/3d
      bin: standard
Per MPI rank memory allocation (min/avg/max) = 3.906 | 3.906 | 3.906 Mbytes
   Step          Temp          TotEng         E_pair         PotEng         KinEng    
         0   1e-07          4951.174       4951.174       4951.174       2.5852029e-10
   1000000   399.69487     -106.7671      -107.80039     -107.80039      1.0332923    
   2000000   799.95408     -105.71635     -107.78439     -107.78439      2.0680436    
   3000000   1200.7319     -104.63951     -107.74364     -107.74364      3.1041356    
   4000000   1598.4761     -103.54123     -107.67362     -107.67362      4.132385     
   5000000   1969.7857     -112.33941     -117.4317      -117.4317       5.0922958    
   6000000   2452.7086     -111.11488     -117.45563     -117.45563      6.3407494    
   7000000   2806.8876     -113.26944     -120.52582     -120.52582      7.2563739    
   8000000   3145.5875     -110.10155     -118.23353     -118.23353      8.1319819    
   9000000   3683.4126     -101.97714     -111.49951     -111.49951      9.522369     
  10000000   3949.2131     -103.23864     -113.44816     -113.44816      10.209517    
Loop time of 3619.27 on 1 procs for 10000000 steps with 21 atoms

Performance: 23.872 ns/day, 1.005 hours/ns, 2762.991 timesteps/s, 58.023 katom-step/s
99.5% CPU use with 1 MPI tasks x 1 OpenMP threads

MPI task timing breakdown:
Section |  min time  |  avg time  |  max time  |%varavg| %total
---------------------------------------------------------------
Pair    | 3342.1     | 3342.1     | 3342.1     |   0.0 | 92.34
Neigh   | 28.739     | 28.739     | 28.739     |   0.0 |  0.79
Comm    | 26.506     | 26.506     | 26.506     |   0.0 |  0.73
Output  | 7.9559     | 7.9559     | 7.9559     |   0.0 |  0.22
Modify  | 165.73     | 165.73     | 165.73     |   0.0 |  4.58
Other   |            | 48.22      |            |       |  1.33

Nlocal:             21 ave          21 max          21 min
Histogram: 1 0 0 0 0 0 0 0 0 0
Nghost:              0 ave           0 max           0 min
Histogram: 1 0 0 0 0 0 0 0 0 0
Neighs:              0 ave           0 max           0 min
Histogram: 1 0 0 0 0 0 0 0 0 0
FullNghs:          402 ave         402 max         402 min
Histogram: 1 0 0 0 0 0 0 0 0 0

Total # of neighbors = 402
Ave neighs/atom = 19.142857
Neighbor list builds = 276573
Dangerous builds = 0
write_restart 	./endconf/endconf*1.restart
System init for write_restart ...

#==============Constant Temp Phase==================

# Minimize during the constant temperature phase
min_style       sd
minimize        1.0e-5 1.0e-7 500 1000
Per MPI rank memory allocation (min/avg/max) = 6.283 | 6.283 | 6.283 Mbytes
   Step          Temp          TotEng         E_pair         PotEng         KinEng    
  10000000   3949.2131     -103.23864     -113.44816     -113.44816      10.209517    
  10000083   3949.2131     -111.93509     -122.14461     -122.14461      10.209517    
Loop time of 0.18734 on 1 procs for 83 steps with 21 atoms

19.7% CPU use with 1 MPI tasks x 1 OpenMP threads

Minimization stats:
  Stopping criterion = energy tolerance
  Energy initial, next-to-last, final = 
     -113.448155983416  -122.144257603965  -122.144610576731
  Force two-norm initial, final = 31.197135 1.4440087
  Force max component initial, final = 9.3655303 0.63789114
  Final line search alpha, max atom move = 0.27329944 0.17433529
  Iterations, force evaluations = 83 188

MPI task timing breakdown:
Section |  min time  |  avg time  |  max time  |%varavg| %total
---------------------------------------------------------------
Pair    | 0.024561   | 0.024561   | 0.024561   |   0.0 | 13.11
Neigh   | 0.010649   | 0.010649   | 0.010649   |   0.0 |  5.68
Comm    | 0.0001733  | 0.0001733  | 0.0001733  |   0.0 |  0.09
Output  | 0          | 0          | 0          |   0.0 |  0.00
Modify  | 0          | 0          | 0          |   0.0 |  0.00
Other   |            | 0.152      |            |       | 81.11

Nlocal:             21 ave          21 max          21 min
Histogram: 1 0 0 0 0 0 0 0 0 0
Nghost:              0 ave           0 max           0 min
Histogram: 1 0 0 0 0 0 0 0 0 0
Neighs:              0 ave           0 max           0 min
Histogram: 1 0 0 0 0 0 0 0 0 0
FullNghs:          384 ave         384 max         384 min
Histogram: 1 0 0 0 0 0 0 0 0 0

Total # of neighbors = 384
Ave neighs/atom = 18.285714
Neighbor list builds = 39
Dangerous builds = 0

unfix 			2
fix 			4 all temp/berendsen ${tempchauf} ${tempchauf} ${Tdamp}
fix 			4 all temp/berendsen 4000 ${tempchauf} ${Tdamp}
fix 			4 all temp/berendsen 4000 4000 ${Tdamp}
fix 			4 all temp/berendsen 4000 4000 0.001

run 			${iterther}
run 			1000000
Per MPI rank memory allocation (min/avg/max) = 5.158 | 5.158 | 5.158 Mbytes
   Step          Temp          TotEng         E_pair         PotEng         KinEng    
  10000083   3949.2131     -111.93509     -122.14461     -122.14461      10.209517    
  11000000   3871.856      -101.53107     -111.54061     -111.54061      10.009533    
  11000083   3953.1688     -101.36646     -111.58621     -111.58621      10.219743    
Loop time of 313.402 on 1 procs for 1000000 steps with 21 atoms

Performance: 27.568 ns/day, 0.871 hours/ns, 3190.786 timesteps/s, 67.007 katom-step/s
99.5% CPU use with 1 MPI tasks x 1 OpenMP threads

MPI task timing breakdown:
Section |  min time  |  avg time  |  max time  |%varavg| %total
---------------------------------------------------------------
Pair    | 287.74     | 287.74     | 287.74     |   0.0 | 91.81
Neigh   | 2.1919     | 2.1919     | 2.1919     |   0.0 |  0.70
Comm    | 1.9638     | 1.9638     | 1.9638     |   0.0 |  0.63
Output  | 0.92787    | 0.92787    | 0.92787    |   0.0 |  0.30
Modify  | 15.877     | 15.877     | 15.877     |   0.0 |  5.07
Other   |            | 4.704      |            |       |  1.50

Nlocal:             21 ave          21 max          21 min
Histogram: 1 0 0 0 0 0 0 0 0 0
Nghost:              0 ave           0 max           0 min
Histogram: 1 0 0 0 0 0 0 0 0 0
Neighs:              0 ave           0 max           0 min
Histogram: 1 0 0 0 0 0 0 0 0 0
FullNghs:          372 ave         372 max         372 min
Histogram: 1 0 0 0 0 0 0 0 0 0

Total # of neighbors = 372
Ave neighs/atom = 17.714286
Neighbor list builds = 32036
Dangerous builds = 0
write_restart 	./endconf/endconf*2.restart
System init for write_restart ...

#=================Cooling Phase=====================

# Re-minimize before cooling
#min_style       sd
#minimize        1.0e-5 1.0e-7 500 1000

unfix 			4
fix 			5 all temp/berendsen ${tempchauf} 0.0 ${Tdamp}
fix 			5 all temp/berendsen 4000 0.0 ${Tdamp}
fix 			5 all temp/berendsen 4000 0.0 0.001

run 			${iter}
run 			10000000
Per MPI rank memory allocation (min/avg/max) = 5.158 | 5.158 | 5.158 Mbytes
   Step          Temp          TotEng         E_pair         PotEng         KinEng    
  11000083   3953.1688     -101.36646     -111.58621     -111.58621      10.219743    
  12000000   3573.7602     -105.21132     -114.45022     -114.45022      9.2388954    
  13000000   3155.4179     -112.29753     -120.45493     -120.45493      8.1573954    
  14000000   2777.6145     -115.85051     -123.0312      -123.0312       7.180697     
  15000000   2390.4318     -117.65699     -123.83674     -123.83674      6.1797512    
  16000000   2036.6069     -117.66731     -122.93236     -122.93236      5.265042     
  17000000   1622.9206     -119.41148     -123.60706     -123.60706      4.195579     
  18000000   1197.0948     -120.751       -123.84574     -123.84574      3.094733     
  19000000   800.62648     -122.75851     -124.8283      -124.8283       2.0697819    
  20000000   401.284       -124.09017     -125.12757     -125.12757      1.0374006    
  21000000   0.040731272   -125.56029     -125.56039     -125.56039      0.0001052986 
  21000083   0.0061048863  -125.56045     -125.56047     -125.56047      1.578237e-05 
Loop time of 3341.5 on 1 procs for 10000000 steps with 21 atoms

Performance: 25.857 ns/day, 0.928 hours/ns, 2992.664 timesteps/s, 62.846 katom-step/s
99.4% CPU use with 1 MPI tasks x 1 OpenMP threads

MPI task timing breakdown:
Section |  min time  |  avg time  |  max time  |%varavg| %total
---------------------------------------------------------------
Pair    | 3098.8     | 3098.8     | 3098.8     |   0.0 | 92.74
Neigh   | 15.039     | 15.039     | 15.039     |   0.0 |  0.45
Comm    | 17.027     | 17.027     | 17.027     |   0.0 |  0.51
Output  | 6.2908     | 6.2908     | 6.2908     |   0.0 |  0.19
Modify  | 160.8      | 160.8      | 160.8      |   0.0 |  4.81
Other   |            | 43.52      |            |       |  1.30

Nlocal:             21 ave          21 max          21 min
Histogram: 1 0 0 0 0 0 0 0 0 0
Nghost:              0 ave           0 max           0 min
Histogram: 1 0 0 0 0 0 0 0 0 0
Neighs:              0 ave           0 max           0 min
Histogram: 1 0 0 0 0 0 0 0 0 0
FullNghs:          410 ave         410 max         410 min
Histogram: 1 0 0 0 0 0 0 0 0 0

Total # of neighbors = 410
Ave neighs/atom = 19.52381
Neighbor list builds = 211559
Dangerous builds = 0
write_restart 	./endconf/endconf*3.restart
System init for write_restart ...

Total wall time: 2:01:15
