LAMMPS (7 Feb 2024 - Update 1)
OMP_NUM_THREADS environment is not set. Defaulting to 1 thread. (src/comm.cpp:98)
  using 1 OpenMP thread(s) per MPI task
#============Initialization=================
units 			metal
atom_style 		atomic
boundary 		p p p

############################################
#              CLI Variables               #
############################################
variable 		seed index 200093          #
variable 		N index 21                 #
variable 		iter index 10000000        #
variable 		iterther index 1000000     #
variable 		iexport index 100000       #
variable 		tempchauf index 3000       #
variable 		Tdamp index 0.001          #
variable 		timestep index 0.0001      #
variable 		box_size index 40		   #
############################################
############################################
#=========Simulation box definition=========
lattice 		sc 1.0
Lattice spacing in x,y,z = 1 1 1
region 			bigbox block 0 ${box_size} 0 ${box_size} 0 ${box_size}
region 			bigbox block 0 40 0 ${box_size} 0 ${box_size}
region 			bigbox block 0 40 0 40 0 ${box_size}
region 			bigbox block 0 40 0 40 0 40
create_box 		1 bigbox
Created orthogonal box = (0 0 0) to (40 40 40)
  1 by 1 by 1 MPI processor grid

#==================Atoms====================
region 			safezone block 27 30 27 30 27 30 units box
create_atoms 	1 random ${N} ${seed} safezone
create_atoms 	1 random 21 ${seed} safezone
create_atoms 	1 random 21 200093 safezone
Created 21 atoms
  using lattice units in orthogonal box = (0 0 0) to (40 40 40)
  create_atoms CPU = 0.000 seconds
labelmap 		atom 1 C
mass 			* 12.01



#==========Velocity initialization==========
velocity 		all create 0.0000001 1563967 rot yes dist gaussian

#======Pair style for atom interactions=============
pair_style 		airebo 1.8 1 1
pair_coeff 		* * CH.airebo C
Reading airebo potential file CH.airebo with DATE: 2011-10-25

#==============Neighbor selection===================
neighbor 		0.3 bin
neigh_modify 	every 1 delay 0 check yes



#==============Custom Wall force====================
#==========Wall with harmonic potential=============
#variable       k equal 10.0

#fix             xlo_wall all wall/harmonic xlo EDGE v_k 1.0 0.7
#fix             xhi_wall all wall/harmonic xhi EDGE v_k 1.0 0.7
#fix             ylo_wall all wall/harmonic ylo EDGE v_k 1.0 0.7
#fix             yhi_wall all wall/harmonic yhi EDGE v_k 1.0 0.7
#fix             zlo_wall all wall/harmonic zlo EDGE v_k 1.0 0.7
#fix             zhi_wall all wall/harmonic zhi EDGE v_k 1.0 0.7



#=====================Timestep======================
timestep 		${timestep}
timestep 		0.0001

#===============Define dump command=================
dump 			1 all cfg 100000 ./dump/dump.tensile_*.cfg mass type xs ys zs vx vy vz id

#========System temperature printing info===========
thermo_style 	custom step temp etotal epair pe ke
thermo 			${iexport}	# 1'000'000
thermo 			100000	



#====================CRC Cycle======================

#=============Condensation et chauffe===============

# Minimize during the heating phase
#min_style       sd
#minimize        1.0e-5 1.0e-7 500 1000

fix 			1 all nve
fix 			2 all temp/berendsen 0.0 ${tempchauf} ${Tdamp}
fix 			2 all temp/berendsen 0.0 3000 ${Tdamp}
fix 			2 all temp/berendsen 0.0 3000 0.001
fix             3 all momentum 1 linear 1 1 1 angular rescale

run 			${iter}
run 			10000000
Neighbor list info ...
  update: every = 1 steps, delay = 0 steps, check = yes
  max neighbors/atom: 2000, page size: 100000
  master list distance cutoff = 8.116371
  ghost atom cutoff = 8.116371
  binsize = 4.0581855, bins = 10 10 10
  1 neighbor lists, perpetual/occasional/extra = 1 0 0
  (1) pair airebo, perpetual
      attributes: full, newton on, ghost
      pair build: full/bin/ghost
      stencil: full/ghost/bin/3d
      bin: standard
Per MPI rank memory allocation (min/avg/max) = 3.888 | 3.888 | 3.888 Mbytes
   Step          Temp          TotEng         E_pair         PotEng         KinEng    
         0   1e-07          30900.723      30900.723      30900.723      2.5852029e-10
    100000   30.577878     -104.58146     -104.66051     -104.66051      0.07905002   
    200000   60.382231     -115.75416     -115.91026     -115.91026      0.15610032   
    300000   89.982537     -115.77778     -116.0104      -116.0104       0.23262312   
    400000   120.26745     -115.74196     -116.05287     -116.05287      0.31091575   
    500000   150.17405     -115.67348     -116.06171     -116.06171      0.3882304    
    600000   179.94686     -115.59609     -116.06129     -116.06129      0.46519914   
    700000   209.76274     -115.5217      -116.06398     -116.06398      0.54227925   
    800000   239.87839     -115.44172     -116.06185     -116.06185      0.6201343    
    900000   270.25294     -115.35584     -116.0545      -116.0545       0.69865869   
   1000000   300.03475     -115.28501     -116.06066     -116.06066      0.7756507    
   1100000   330.26726     -115.20232     -116.05613     -116.05613      0.85380789   
   1200000   359.69731     -115.12418     -116.05407     -116.05407      0.92989054   
   1300000   389.81896     -115.04755     -116.05532     -116.05532      1.0077611    
   1400000   419.97852     -114.97369     -116.05942     -116.05942      1.0857297    
   1500000   449.78339     -114.89159     -116.05437     -116.05437      1.1627813    
   1600000   480.07993     -114.43464     -115.67574     -115.67574      1.241104     
   1700000   509.62758     -114.58952     -115.90701     -115.90701      1.3174907    
   1800000   541.3533      -114.45095     -115.85046     -115.85046      1.3995081    
   1900000   571.25889     -114.43881     -115.91563     -115.91563      1.4768201    
   2000000   598.45041     -114.39835     -115.94547     -115.94547      1.5471157    
   2100000   631.07975     -114.37617     -116.00764     -116.00764      1.6314692    
   2200000   660.82594     -114.32234     -116.03071     -116.03071      1.7083691    
   2300000   690.40071     -114.24893     -116.03376     -116.03376      1.7848259    
   2400000   719.07837     -114.09026     -115.94922     -115.94922      1.8589635    
   2500000   751.26883     -114.01314     -115.95532     -115.95532      1.9421824    
   2600000   799.1791      -118.37902     -120.44506     -120.44506      2.0660401    
   2700000   797.87753     -120.0618      -122.12447     -122.12447      2.0626753    
   2800000   804.4283      -119.27011     -121.34972     -121.34972      2.0796104    
   2900000   855.99325     -118.43231     -120.64523     -120.64523      2.2129162    
   3000000   895.48786     -118.67653     -120.99155     -120.99155      2.3150178    
   3100000   931.07525     -119.42421     -121.83123     -121.83123      2.4070184    
   3200000   969.53754     -118.43317     -120.93962     -120.93962      2.5064513    
   3300000   961.23113     -118.56089     -121.04587     -121.04587      2.4849775    
   3400000   991.66277     -118.21532     -120.77897     -120.77897      2.5636495    
   3500000   1045.4279     -117.51338     -120.21602     -120.21602      2.7026433    
   3600000   1068.8091     -119.15777     -121.92086     -121.92086      2.7630885    
   3700000   1108.3833     -117.36207     -120.22746     -120.22746      2.8653958    
   3800000   1157.1804     -118.32757     -121.31912     -121.31912      2.991546     
   3900000   1176.1515     -117.92723     -120.96782     -120.96782      3.0405903    
   4000000   1188.2965     -117.80875     -120.88073     -120.88073      3.0719877    
   4100000   1221.7671     -116.17147     -119.32998     -119.32998      3.1585158    
   4200000   1266.9687     -120.40589     -123.68127     -123.68127      3.2753712    
   4300000   1291.9786     -119.09231     -122.43234     -122.43234      3.3400269    
   4400000   1299.1419     -119.17113     -122.52967     -122.52967      3.3585455    
   4500000   1316.7589     -117.78388     -121.18797     -121.18797      3.4040889    
   4600000   1296.52       -117.49528     -120.84705     -120.84705      3.3517673    
   4700000   1401.36       -119.11225     -122.73505     -122.73505      3.6228       
   4800000   1435.4095     -117.8517      -121.56253     -121.56253      3.7108247    
   4900000   1452.8239     -118.90407     -122.65992     -122.65992      3.7558447    
   5000000   1479.8612     -115.91082     -119.73656     -119.73656      3.8257414    
   5100000   1552.1393     -118.65316     -122.66576     -122.66576      4.0125951    
   5200000   1556.045      -116.89556     -120.91825     -120.91825      4.022692     
   5300000   1532.0122     -118.41243     -122.373       -122.373        3.9605623    
   5400000   1528.6471     -115.14815     -119.10001     -119.10001      3.9518629    
   5500000   1663.1056     -116.95126     -121.25072     -121.25072      4.2994653    
   5600000   1632.2797     -116.61936     -120.83913     -120.83913      4.2197743    
   5700000   1751.8571     -117.28392     -121.81282     -121.81282      4.5289059    
   5800000   1748.3347     -116.85418     -121.37398     -121.37398      4.5198       
   5900000   1823.6371     -116.43043     -121.14491     -121.14491      4.714472     
   6000000   1824.7077     -117.02145     -121.73869     -121.73869      4.7172396    
   6100000   1848.0177     -117.10534     -121.88284     -121.88284      4.7775006    
   6200000   1891.8179     -115.51462     -120.40536     -120.40536      4.8907332    
   6300000   1892.1338     -116.38053     -121.27208     -121.27208      4.8915498    
   6400000   2014.8627     -115.06495     -120.27377     -120.27377      5.2088289    
   6500000   1894.356      -117.61981     -122.51711     -122.51711      4.8972947    
   6600000   1954.3662     -114.8558      -119.90823     -119.90823      5.0524332    
   6700000   2038.5382     -116.36444     -121.63448     -121.63448      5.2700349    
   6800000   1971.4858     -116.07323     -121.16992     -121.16992      5.0966909    
   6900000   2006.6001     -114.5294      -119.71687     -119.71687      5.1874683    
   7000000   2119.8592     -115.33531     -120.81558     -120.81558      5.4802662    
   7100000   2114.0994     -115.23526     -120.70063     -120.70063      5.465376     
   7200000   2153.5455     -113.91132     -119.47867     -119.47867      5.5673521    
   7300000   2208.7768     -115.12225     -120.83239     -120.83239      5.7101363    
   7400000   2219.0235     -116.75826     -122.49489     -122.49489      5.7366259    
   7500000   2253.4794     -116.46327     -122.28897     -122.28897      5.8257016    
   7600000   2324.6927     -111.98679     -117.99659     -117.99659      6.0098022    
   7700000   2287.9089     -114.87809     -120.7928      -120.7928       5.9147088    
   7800000   2381.9327     -112.92927     -119.08705     -119.08705      6.1577793    
   7900000   2411.7646     -113.06834     -119.30324     -119.30324      6.2349009    
   8000000   2428.3274     -113.79558     -120.0733      -120.0733       6.2777191    
   8100000   2469.5165     -112.71493     -119.09913     -119.09913      6.3842013    
   8200000   2399.2336     -112.29289     -118.49539     -118.49539      6.2025055    
   8300000   2554.6932     -112.71552     -119.31992     -119.31992      6.6044003    
   8400000   2630.0669     -112.36845     -119.16771     -119.16771      6.7992565    
   8500000   2482.5291     -109.83837     -116.25621     -116.25621      6.4178413    
   8600000   2488.8678     -112.58319     -119.01741     -119.01741      6.4342283    
   8700000   2700.7957     -111.40542     -118.38752     -118.38752      6.9821048    
   8800000   2658.8412     -111.30008     -118.17372     -118.17372      6.8736441    
   8900000   2886.5717     -109.08966     -116.55203     -116.55203      7.4623735    
   9000000   2621.5862     -110.03951     -116.81684     -116.81684      6.7773322    
   9100000   2596.4276     -108.63794     -115.35023     -115.35023      6.7122921    
   9200000   2682.2625     -108.85687     -115.79107     -115.79107      6.9341928    
   9300000   2760.2365     -111.66461     -118.80038     -118.80038      7.1357715    
   9400000   2800.5384     -108.09        -115.32996     -115.32996      7.23996      
   9500000   2841.1094     -109.53129     -116.87613     -116.87613      7.3448443    
   9600000   2877.0078     -111.86588     -119.30353     -119.30353      7.4376489    
   9700000   3090.8325     -107.25484     -115.24527     -115.24527      7.9904292    
   9800000   2993.4044     -108.36157     -116.10012     -116.10012      7.7385576    
   9900000   2974.585      -106.91745     -114.60736     -114.60736      7.6899058    
  10000000   2909.7252     -107.39771     -114.91994     -114.91994      7.5222301    
Loop time of 1723.07 on 1 procs for 10000000 steps with 21 atoms

Performance: 50.143 ns/day, 0.479 hours/ns, 5803.601 timesteps/s, 121.876 katom-step/s
99.7% CPU use with 1 MPI tasks x 1 OpenMP threads

MPI task timing breakdown:
Section |  min time  |  avg time  |  max time  |%varavg| %total
---------------------------------------------------------------
Pair    | 1563.5     | 1563.5     | 1563.5     |   0.0 | 90.74
Neigh   | 34.737     | 34.737     | 34.737     |   0.0 |  2.02
Comm    | 22.806     | 22.806     | 22.806     |   0.0 |  1.32
Output  | 1.3283     | 1.3283     | 1.3283     |   0.0 |  0.08
Modify  | 80.071     | 80.071     | 80.071     |   0.0 |  4.65
Other   |            | 20.67      |            |       |  1.20

Nlocal:             21 ave          21 max          21 min
Histogram: 1 0 0 0 0 0 0 0 0 0
Nghost:             87 ave          87 max          87 min
Histogram: 1 0 0 0 0 0 0 0 0 0
Neighs:              0 ave           0 max           0 min
Histogram: 1 0 0 0 0 0 0 0 0 0
FullNghs:          420 ave         420 max         420 min
Histogram: 1 0 0 0 0 0 0 0 0 0

Total # of neighbors = 420
Ave neighs/atom = 20
Neighbor list builds = 194627
Dangerous builds = 18
write_restart 	./endconf/endconf*1.restart
System init for write_restart ...

#==============Constant Temp Phase==================

# Minimize during the constant temperature phase
min_style       sd
minimize        1.0e-5 1.0e-7 500 1000
Per MPI rank memory allocation (min/avg/max) = 6.266 | 6.266 | 6.266 Mbytes
   Step          Temp          TotEng         E_pair         PotEng         KinEng    
  10000000   2909.7252     -107.39771     -114.91994     -114.91994      7.5222301    
  10000064   2909.7252     -117.43249     -124.95472     -124.95472      7.5222301    
Loop time of 0.0513124 on 1 procs for 64 steps with 21 atoms

35.3% CPU use with 1 MPI tasks x 1 OpenMP threads

Minimization stats:
  Stopping criterion = energy tolerance
  Energy initial, next-to-last, final = 
     -114.919940184095  -124.953992455403  -124.954721850528
  Force two-norm initial, final = 28.626495 0.29973021
  Force max component initial, final = 10.512716 0.1225077
  Final line search alpha, max atom move = 0.056399073 0.0069093207
  Iterations, force evaluations = 64 130

MPI task timing breakdown:
Section |  min time  |  avg time  |  max time  |%varavg| %total
---------------------------------------------------------------
Pair    | 0.028378   | 0.028378   | 0.028378   |   0.0 | 55.30
Neigh   | 0.0084993  | 0.0084993  | 0.0084993  |   0.0 | 16.56
Comm    | 0.00033959 | 0.00033959 | 0.00033959 |   0.0 |  0.66
Output  | 0          | 0          | 0          |   0.0 |  0.00
Modify  | 0          | 0          | 0          |   0.0 |  0.00
Other   |            | 0.0141     |            |       | 27.47

Nlocal:             21 ave          21 max          21 min
Histogram: 1 0 0 0 0 0 0 0 0 0
Nghost:             87 ave          87 max          87 min
Histogram: 1 0 0 0 0 0 0 0 0 0
Neighs:              0 ave           0 max           0 min
Histogram: 1 0 0 0 0 0 0 0 0 0
FullNghs:          416 ave         416 max         416 min
Histogram: 1 0 0 0 0 0 0 0 0 0

Total # of neighbors = 416
Ave neighs/atom = 19.809524
Neighbor list builds = 29
Dangerous builds = 0

unfix 			2
fix 			4 all temp/berendsen ${tempchauf} ${tempchauf} ${Tdamp}
fix 			4 all temp/berendsen 3000 ${tempchauf} ${Tdamp}
fix 			4 all temp/berendsen 3000 3000 ${Tdamp}
fix 			4 all temp/berendsen 3000 3000 0.001

run 			${iterther}
run 			1000000
Per MPI rank memory allocation (min/avg/max) = 5.141 | 5.141 | 5.141 Mbytes
   Step          Temp          TotEng         E_pair         PotEng         KinEng    
  10000064   2909.7252     -117.43249     -124.95472     -124.95472      7.5222301    
  10100000   2907.8405     -110.06775     -117.58511     -117.58511      7.5173578    
  10200000   2878.4201     -107.68705     -115.12835     -115.12835      7.4413       
  10300000   2988.039      -111.10623     -118.83092     -118.83092      7.7246871    
  10400000   2957.4752     -109.62765     -117.27332     -117.27332      7.6456734    
  10500000   2917.4116     -110.46206     -118.00416     -118.00416      7.5421009    
  10600000   3053.7346     -111.47424     -119.36877     -119.36877      7.8945235    
  10700000   2967.0292     -112.52292     -120.1933      -120.1933       7.6703724    
  10800000   3067.7864     -111.53478     -119.46563     -119.46563      7.9308503    
  10900000   2887.0321     -110.96544     -118.429       -118.429        7.4635638    
  11000000   3048.097      -112.62248     -120.50243     -120.50243      7.8799492    
  11000064   3003.002      -112.90834     -120.67171     -120.67171      7.7633695    
Loop time of 300.642 on 1 procs for 1000000 steps with 21 atoms

Performance: 28.739 ns/day, 0.835 hours/ns, 3326.219 timesteps/s, 69.851 katom-step/s
99.8% CPU use with 1 MPI tasks x 1 OpenMP threads

MPI task timing breakdown:
Section |  min time  |  avg time  |  max time  |%varavg| %total
---------------------------------------------------------------
Pair    | 277.23     | 277.23     | 277.23     |   0.0 | 92.21
Neigh   | 6.0096     | 6.0096     | 6.0096     |   0.0 |  2.00
Comm    | 3.2484     | 3.2484     | 3.2484     |   0.0 |  1.08
Output  | 0.19237    | 0.19237    | 0.19237    |   0.0 |  0.06
Modify  | 10.795     | 10.795     | 10.795     |   0.0 |  3.59
Other   |            | 3.165      |            |       |  1.05

Nlocal:             21 ave          21 max          21 min
Histogram: 1 0 0 0 0 0 0 0 0 0
Nghost:             91 ave          91 max          91 min
Histogram: 1 0 0 0 0 0 0 0 0 0
Neighs:              0 ave           0 max           0 min
Histogram: 1 0 0 0 0 0 0 0 0 0
FullNghs:          416 ave         416 max         416 min
Histogram: 1 0 0 0 0 0 0 0 0 0

Total # of neighbors = 416
Ave neighs/atom = 19.809524
Neighbor list builds = 27502
Dangerous builds = 0
write_restart 	./endconf/endconf*2.restart
System init for write_restart ...

#=================Cooling Phase=====================

# Re-minimize before cooling
#min_style       sd
#minimize        1.0e-5 1.0e-7 500 1000

unfix 			4
fix 			5 all temp/berendsen ${tempchauf} 0.0 ${Tdamp}
fix 			5 all temp/berendsen 3000 0.0 ${Tdamp}
fix 			5 all temp/berendsen 3000 0.0 0.001

run 			${iter}
run 			10000000
Per MPI rank memory allocation (min/avg/max) = 5.141 | 5.141 | 5.141 Mbytes
   Step          Temp          TotEng         E_pair         PotEng         KinEng    
  11000064   3003.002      -112.90834     -120.67171     -120.67171      7.7633695    
  11100000   2804.6544     -110.48427     -117.73487     -117.73487      7.2506006    
  11200000   3041.6457     -111.86373     -119.727       -119.727        7.8632712    
  11300000   2925.2678     -107.27425     -114.83666     -114.83666      7.5624109    
  11400000   2983.9125     -110.62517     -118.33919     -118.33919      7.7140192    
  11500000   2852.5477     -109.39797     -116.77239     -116.77239      7.3744145    
  11600000   2665.4391     -110.38957     -117.28027     -117.28027      6.890701     
  11700000   2813.3159     -112.02024     -119.29323     -119.29323      7.2729925    
  11800000   2684.7776     -112.78671     -119.7274      -119.7274       6.9406948    
  11900000   2658.5494     -108.05213     -114.92502     -114.92502      6.8728897    
  12000000   2772.6026     -113.28039     -120.44813     -120.44813      7.1677404    
  12100000   2655.0817     -109.40643     -116.27036     -116.27036      6.863925     
  12200000   2607.1078     -112.09631     -118.83621     -118.83621      6.7399025    
  12300000   2561.6163     -109.76565     -116.38795     -116.38795      6.622298     
  12400000   2536.6991     -108.96694     -115.52482     -115.52482      6.5578819    
  12500000   2468.6238     -113.01353     -119.39543     -119.39543      6.3818933    
  12600000   2344.761      -110.03266     -116.09434     -116.09434      6.061683     
  12700000   2519.5782     -112.88496     -119.39858     -119.39858      6.513621     
  12800000   2401.1008     -114.56041     -120.76775     -120.76775      6.2073327    
  12900000   2402.13       -113.2975      -119.50749     -119.50749      6.2099935    
  13000000   2476.9026     -113.37272     -119.77602     -119.77602      6.4032959    
  13100000   2416.0698     -113.10742     -119.35345     -119.35345      6.2460305    
  13200000   2402.633      -112.98958     -119.20088     -119.20088      6.2112938    
  13300000   2311.1237     -113.34201     -119.31673     -119.31673      5.9747237    
  13400000   2332.0973     -113.99535     -120.02429     -120.02429      6.0289447    
  13500000   2238.773      -113.5247      -119.31239     -119.31239      5.7876824    
  13600000   2247.1027     -114.03066     -119.83988     -119.83988      5.8092163    
  13700000   2259.4208     -112.87323     -118.71429     -118.71429      5.8410612    
  13800000   2121.305      -115.13641     -120.62042     -120.62042      5.484004     
  13900000   2112.4471     -114.15472     -119.61583     -119.61583      5.4611045    
  14000000   1993.8816     -115.92956     -121.08414     -121.08414      5.1545886    
  14100000   2058.6748     -115.65916     -120.98125     -120.98125      5.322092     
  14200000   1996.3937     -113.58863     -118.74971     -118.74971      5.1610827    
  14300000   1930.1687     -114.83973     -119.82961     -119.82961      4.9898776    
  14400000   1899.0869     -114.98355     -119.89308     -119.89308      4.909525     
  14500000   1971.4619     -113.80914     -118.90577     -118.90577      5.0966291    
  14600000   1943.2585     -115.03333     -120.05705     -120.05705      5.0237176    
  14700000   1843.2162     -115.34302     -120.1081      -120.1081       4.7650879    
  14800000   1840.2112     -116.19695     -120.95427     -120.95427      4.7573192    
  14900000   1779.9326     -113.90475     -118.50623     -118.50623      4.6014868    
  15000000   1807.9074     -113.94198     -118.61579     -118.61579      4.6738074    
  15100000   1669.9063     -115.60097     -119.91801     -119.91801      4.3170465    
  15200000   1802.1316     -118.22214     -122.88102     -122.88102      4.6588759    
  15300000   1717.37       -117.77795     -122.2177      -122.2177       4.4397498    
  15400000   1728.9948     -115.34501     -119.81481     -119.81481      4.4698023    
  15500000   1642.3789     -118.43358     -122.67946     -122.67946      4.2458827    
  15600000   1679.835      -116.63153     -120.97424     -120.97424      4.3427143    
  15700000   1603.2239     -118.56495     -122.7096      -122.7096       4.1446592    
  15800000   1495.3025     -117.54992     -121.41558     -121.41558      3.8656602    
  15900000   1586.8158     -118.06578     -122.16802     -122.16802      4.1022408    
  16000000   1465.1217     -118.89135     -122.67898     -122.67898      3.7876368    
  16100000   1484.2085     -118.14103     -121.97801     -121.97801      3.8369801    
  16200000   1402.0562     -118.36968     -121.99428     -121.99428      3.6245996    
  16300000   1471.6669     -116.71419     -120.51874     -120.51874      3.8045575    
  16400000   1359.2467     -118.27089     -121.78482     -121.78482      3.5139285    
  16500000   1330.2838     -119.80963     -123.24868     -123.24868      3.4390534    
  16600000   1230.9375     -118.64355     -121.82577     -121.82577      3.1822232    
  16700000   1284.5908     -119.45904     -122.77997     -122.77997      3.3209279    
  16800000   1231.1322     -119.34617     -122.5289      -122.5289       3.1827266    
  16900000   1185.1799     -119.6102      -122.67413     -122.67413      3.0639305    
  17000000   1247.0824     -119.22851     -122.45247     -122.45247      3.223961     
  17100000   1129.5194     -120.1175      -123.03753     -123.03753      2.9200368    
  17200000   1169.7995     -119.8849      -122.90907     -122.90907      3.0241691    
  17300000   1168.9794     -120.13279     -123.15484     -123.15484      3.022049     
  17400000   1073.3306     -119.66024     -122.43501     -122.43501      2.7747775    
  17500000   1033.4739     -119.45368     -122.12542     -122.12542      2.6717397    
  17600000   1042.9101     -119.56169     -122.25782     -122.25782      2.6961341    
  17700000   1009.4612     -119.26231     -121.87197     -121.87197      2.6096621    
  17800000   923.66171     -119.50739     -121.89525     -121.89525      2.3878529    
  17900000   916.67198     -120.39523     -122.76502     -122.76502      2.3697831    
  18000000   858.06799     -120.6997      -122.91798     -122.91798      2.2182799    
  18100000   924.12135     -120.82186     -123.2109      -123.2109       2.3890412    
  18200000   849.69669     -120.86562     -123.06226     -123.06226      2.1966383    
  18300000   806.61911     -121.20099     -123.28626     -123.28626      2.0852741    
  18400000   729.35102     -120.58758     -122.4731      -122.4731       1.8855204    
  18500000   764.72728     -120.63022     -122.60719     -122.60719      1.9769752    
  18600000   707.44817     -120.7102      -122.5391      -122.5391       1.8288971    
  18700000   686.2095      -122.02395     -123.79794     -123.79794      1.7739908    
  18800000   628.94724     -121.39879     -123.02475     -123.02475      1.6259562    
  18900000   627.61352     -121.18419     -122.8067      -122.8067       1.6225083    
  19000000   620.05398     -121.83034     -123.4333      -123.4333       1.6029654    
  19100000   573.35591     -122.42256     -123.9048      -123.9048       1.4822414    
  19200000   563.84017     -122.66914     -124.12678     -124.12678      1.4576412    
  19300000   510.52292     -122.63847     -123.95828     -123.95828      1.3198053    
  19400000   474.01598     -122.8471      -124.07253     -124.07253      1.2254275    
  19500000   441.48859     -122.97618     -124.11751     -124.11751      1.1413376    
  19600000   425.16876     -122.92642     -124.02557     -124.02557      1.0991475    
  19700000   382.10156     -122.93402     -123.92183     -123.92183      0.98781007   
  19800000   366.81983     -122.92836     -123.87667     -123.87667      0.94830369   
  19900000   324.76647     -123.35818     -124.19777     -124.19777      0.83958722   
  20000000   291.82067     -123.76203     -124.51645     -124.51645      0.75441563   
  20100000   268.82935     -123.26259     -123.95757     -123.95757      0.69497843   
  20200000   239.20208     -123.76781     -124.38619     -124.38619      0.61838592   
  20300000   211.05746     -124.16807     -124.7137      -124.7137       0.54562635   
  20400000   173.40354     -124.29754     -124.74583     -124.74583      0.44828333   
  20500000   150.99169     -124.16023     -124.55058     -124.55058      0.39034415   
  20600000   120.10098     -124.20662     -124.51711     -124.51711      0.3104854    
  20700000   91.334381     -124.59022     -124.82634     -124.82634      0.23611791   
  20800000   60.864561     -124.70883     -124.86618     -124.86618      0.15734724   
  20900000   29.203255     -124.84336     -124.91885     -124.91885      0.075496339  
  21000000   0.024043215   -124.9977      -124.99776     -124.99776      6.2156589e-05
  21000064   0.0040478071  -124.99778     -124.99779     -124.99779      1.0464403e-05
Loop time of 2794.01 on 1 procs for 10000000 steps with 21 atoms

Performance: 30.923 ns/day, 0.776 hours/ns, 3579.092 timesteps/s, 75.161 katom-step/s
99.7% CPU use with 1 MPI tasks x 1 OpenMP threads

MPI task timing breakdown:
Section |  min time  |  avg time  |  max time  |%varavg| %total
---------------------------------------------------------------
Pair    | 2615       | 2615       | 2615       |   0.0 | 93.59
Neigh   | 34.676     | 34.676     | 34.676     |   0.0 |  1.24
Comm    | 26.909     | 26.909     | 26.909     |   0.0 |  0.96
Output  | 1.7806     | 1.7806     | 1.7806     |   0.0 |  0.06
Modify  | 91.472     | 91.472     | 91.472     |   0.0 |  3.27
Other   |            | 24.13      |            |       |  0.86

Nlocal:             21 ave          21 max          21 min
Histogram: 1 0 0 0 0 0 0 0 0 0
Nghost:             75 ave          75 max          75 min
Histogram: 1 0 0 0 0 0 0 0 0 0
Neighs:              0 ave           0 max           0 min
Histogram: 1 0 0 0 0 0 0 0 0 0
FullNghs:          420 ave         420 max         420 min
Histogram: 1 0 0 0 0 0 0 0 0 0

Total # of neighbors = 420
Ave neighs/atom = 20
Neighbor list builds = 180090
Dangerous builds = 0
write_restart 	./endconf/endconf*3.restart
System init for write_restart ...

Total wall time: 1:20:17
