LAMMPS (7 Feb 2024 - Update 1)
OMP_NUM_THREADS environment is not set. Defaulting to 1 thread. (src/comm.cpp:98)
  using 1 OpenMP thread(s) per MPI task
#============Initialization=================
units 			metal
atom_style 		atomic
boundary 		p p p

############################################
#              CLI Variables               #
############################################
variable 		seed index 200093          #
variable 		N index 21                 #
variable 		iter index 10000000        #
variable 		iterther index 1000000     #
variable 		iexport index 100000       #
variable 		tempchauf index 4000       #
variable 		Tdamp index 0.001          #
variable 		timestep index 0.0001      #
variable 		box_size index 35		   #
############################################
############################################
#=========Simulation box definition=========
lattice 		sc 1.0
Lattice spacing in x,y,z = 1 1 1
region 			bigbox block 0 ${box_size} 0 ${box_size} 0 ${box_size}
region 			bigbox block 0 35 0 ${box_size} 0 ${box_size}
region 			bigbox block 0 35 0 35 0 ${box_size}
region 			bigbox block 0 35 0 35 0 35
create_box 		1 bigbox
Created orthogonal box = (0 0 0) to (35 35 35)
  1 by 1 by 1 MPI processor grid

#==================Atoms====================
region 			safezone block 6 9 6 9 6 9 units box
create_atoms 	1 random ${N} ${seed} safezone
create_atoms 	1 random 21 ${seed} safezone
create_atoms 	1 random 21 200093 safezone
Created 21 atoms
  using lattice units in orthogonal box = (0 0 0) to (35 35 35)
  create_atoms CPU = 0.001 seconds
labelmap 		atom 1 C
mass 			* 12.01



#==========Velocity initialization==========
velocity 		all create 0.0000001 1563967 rot yes dist gaussian

#======Pair style for atom interactions=============
pair_style 		airebo 1.8 1 1
pair_coeff 		* * CH.airebo C
Reading airebo potential file CH.airebo with DATE: 2011-10-25

#==============Neighbor selection===================
neighbor 		0.3 bin
neigh_modify 	every 1 delay 0 check yes



#==============Custom Wall force====================
#==========Wall with harmonic potential=============
#variable       k equal 10.0

#fix             xlo_wall all wall/harmonic xlo EDGE v_k 1.0 0.7
#fix             xhi_wall all wall/harmonic xhi EDGE v_k 1.0 0.7
#fix             ylo_wall all wall/harmonic ylo EDGE v_k 1.0 0.7
#fix             yhi_wall all wall/harmonic yhi EDGE v_k 1.0 0.7
#fix             zlo_wall all wall/harmonic zlo EDGE v_k 1.0 0.7
#fix             zhi_wall all wall/harmonic zhi EDGE v_k 1.0 0.7



#=====================Timestep======================
timestep 		${timestep}
timestep 		0.0001

#===============Define dump command=================
dump 			1 all cfg 100000 ./dump/dump.tensile_*.cfg mass type xs ys zs vx vy vz id

#========System temperature printing info===========
thermo_style 	custom step temp etotal epair pe ke
thermo 			${iexport}	# 1'000'000
thermo 			100000	



#====================CRC Cycle======================

#=============Condensation et chauffe===============

# Minimize during the heating phase
#min_style       sd
#minimize        1.0e-5 1.0e-7 500 1000

fix 			1 all nve
fix 			2 all temp/berendsen 0.0 ${tempchauf} ${Tdamp}
fix 			2 all temp/berendsen 0.0 4000 ${Tdamp}
fix 			2 all temp/berendsen 0.0 4000 0.001
fix             3 all momentum 1 linear 1 1 1 angular rescale

run 			${iter}
run 			10000000
Neighbor list info ...
  update: every = 1 steps, delay = 0 steps, check = yes
  max neighbors/atom: 2000, page size: 100000
  master list distance cutoff = 8.116371
  ghost atom cutoff = 8.116371
  binsize = 4.0581855, bins = 9 9 9
  1 neighbor lists, perpetual/occasional/extra = 1 0 0
  (1) pair airebo, perpetual
      attributes: full, newton on, ghost
      pair build: full/bin/ghost
      stencil: full/ghost/bin/3d
      bin: standard
Per MPI rank memory allocation (min/avg/max) = 3.886 | 3.886 | 3.886 Mbytes
   Step          Temp          TotEng         E_pair         PotEng         KinEng    
         0   1e-07          30900.723      30900.723      30900.723      2.5852029e-10
    100000   40.361831     -104.51353     -104.61788     -104.61788      0.10434352   
    200000   85.375771     -109.712       -109.93271     -109.93271      0.22071369   
    300000   119.42713     -110.17951     -110.48825     -110.48825      0.30874337   
    400000   161.75687     -115.36994     -115.78811     -115.78811      0.41817432   
    500000   200.11742     -115.17518     -115.69253     -115.69253      0.51734414   
    600000   239.28012     -115.26188     -115.88046     -115.88046      0.61858767   
    700000   278.93755     -115.29324     -116.01435     -116.01435      0.72111017   
    800000   320.17716     -114.7647      -115.59243     -115.59243      0.82772292   
    900000   361.53905     -115.02953     -115.96418     -115.96418      0.9346518    
   1000000   399.67694     -114.96534     -115.99859     -115.99859      1.033246     
   1100000   440.17712     -114.83724     -115.97519     -115.97519      1.1379472    
   1200000   480.05547     -114.77283     -116.01387     -116.01387      1.2410408    
   1300000   520.3849      -114.68127     -116.02657     -116.02657      1.3453005    
   1400000   557.45204     -113.97901     -115.42013     -115.42013      1.4411266    
   1500000   623.78882     -115.56204     -117.17466     -117.17466      1.6126207    
   1600000   647.44982     -115.72462     -117.39841     -117.39841      1.6737891    
   1700000   660.20927     -116.42837     -118.13514     -118.13514      1.7067749    
   1800000   714.83699     -116.37788     -118.22588     -118.22588      1.8479987    
   1900000   739.52347     -115.55892     -117.47073     -117.47073      1.9118182    
   2000000   786.65044     -116.15486     -118.18851     -118.18851      2.033651     
   2100000   853.33762     -115.06092     -117.26697     -117.26697      2.2060509    
   2200000   892.6406      -116.05629     -118.36395     -118.36395      2.3076571    
   2300000   915.49122     -114.60617     -116.9729      -116.9729       2.3667305    
   2400000   950.87272     -114.13791     -116.59611     -116.59611      2.4581989    
   2500000   1036.1322     -115.16985     -117.84846     -117.84846      2.6786119    
   2600000   1044.6215     -114.65944     -117.36        -117.36         2.7005585    
   2700000   1066.2449     -114.72694     -117.4834      -117.4834       2.7564594    
   2800000   1129.1328     -112.38989     -115.30893     -115.30893      2.9190374    
   2900000   1133.426      -114.65735     -117.58748     -117.58748      2.9301362    
   3000000   1230.4049     -114.82154     -118.00238     -118.00238      3.1808463    
   3100000   1241.8671     -113.36941     -116.57989     -116.57989      3.2104784    
   3200000   1262.633      -114.1185      -117.38266     -117.38266      3.2641624    
   3300000   1287.3752     -112.94518     -116.27331     -116.27331      3.3281261    
   3400000   1354.1339     -113.27677     -116.77748     -116.77748      3.500711     
   3500000   1450.8358     -113.37563     -117.12634     -117.12634      3.7507048    
   3600000   1459.22       -111.71842     -115.4908      -115.4908       3.7723798    
   3700000   1487.5486     -112.5611      -116.40672     -116.40672      3.845615     
   3800000   1505.9471     -113.19351     -117.08669     -117.08669      3.8931787    
   3900000   1547.4313     -112.57713     -116.57755     -116.57755      4.0004239    
   4000000   1608.6795     -112.0951      -116.25387     -116.25387      4.1587629    
   4100000   1635.9689     -111.79841     -116.02772     -116.02772      4.2293114    
   4200000   1586.6996     -109.52428     -113.62622     -113.62622      4.1019404    
   4300000   1683.985      -110.43799     -114.79143     -114.79143      4.353443     
   4400000   1725.0981     -109.01508     -113.47481     -113.47481      4.4597285    
   4500000   1827.1887     -112.4593      -117.18295     -117.18295      4.7236535    
   4600000   1822.0298     -111.13148     -115.84179     -115.84179      4.7103167    
   4700000   1788.7808     -111.24771     -115.87207     -115.87207      4.6243613    
   4800000   1928.2355     -111.20911     -116.19399     -116.19399      4.98488      
   4900000   1997.1225     -111.57667     -116.73963     -116.73963      5.162967     
   5000000   1996.6925     -113.51725     -118.67911     -118.67911      5.1618553    
   5100000   1951.8068     -112.43027     -117.47609     -117.47609      5.0458167    
   5200000   2035.0428     -111.1311      -116.3921      -116.3921       5.2609984    
   5300000   2212.0676     -110.8515      -116.57015     -116.57015      5.7186436    
   5400000   2141.4863     -111.20838     -116.74455     -116.74455      5.5361765    
   5500000   2099.9587     -110.15163     -115.58045     -115.58045      5.4288193    
   5600000   2218.7022     -108.64408     -114.37987     -114.37987      5.7357953    
   5700000   2235.6066     -110.98458     -116.76408     -116.76408      5.7794968    
   5800000   2353.5013     -108.6919      -114.77617     -114.77617      6.0842784    
   5900000   2407.5906     -109.7065      -115.93061     -115.93061      6.2241102    
   6000000   2376.328      -110.56049     -116.70378     -116.70378      6.1432901    
   6100000   2488.0389     -105.99546     -112.42754     -112.42754      6.4320854    
   6200000   2567.3216     -108.39388     -115.03093     -115.03093      6.6370472    
   6300000   2574.6292     -109.83667     -116.49261     -116.49261      6.6559389    
   6400000   2503.9514     -109.48823     -115.96145     -115.96145      6.4732223    
   6500000   2596.3908     -108.008       -114.7202      -114.7202       6.7121971    
   6600000   2653.3912     -108.1857      -115.04526     -115.04526      6.8595547    
   6700000   2650.3499     -110.57339     -117.42508     -117.42508      6.8516921    
   6800000   2706.7283     -107.31575     -114.31319     -114.31319      6.997442     
   6900000   2689.4083     -107.54487     -114.49753     -114.49753      6.9526661    
   7000000   2842.4274     -108.03653     -115.38478     -115.38478      7.3482517    
   7100000   2846.5346     -106.16636     -113.52523     -113.52523      7.3588696    
   7200000   290