LAMMPS (7 Feb 2024 - Update 1)
OMP_NUM_THREADS environment is not set. Defaulting to 1 thread. (src/comm.cpp:98)
  using 1 OpenMP thread(s) per MPI task
#============Initialization==============
units 			real
atom_style 		atomic

#==============Box=======================
boundary 		p p p
region 			mybox block 0 100 0 100 0 100
create_box  	1 mybox
Created orthogonal box = (0 0 0) to (100 100 100)
  1 by 1 by 1 MPI processor grid

#============Atoms=======================
create_atoms 	1 random 10 12345 mybox
Created 10 atoms
  using lattice units in orthogonal box = (0 0 0) to (100 100 100)
  create_atoms CPU = 0.001 seconds
# labelmap 		atom 1 H
mass 			* 1.0

#=========Velocity initialization===================
velocity 		all create 0.001 12345 rot yes dist gaussian

#======Pair style for atom interactions=============
pair_style 		lj/cut 2.5
pair_coeff 		* * 1 1

#====Fixes for time integration and constraints=====
fix 			1 all nve
fix 			2 all temp/berendsen 300.0 300.0 100.0

#===========Timestep================================
timestep 		1.0

#========System temperature printing info===========
thermo_style 	custom step temp etotal pe
thermo 			1000

#===============Define dump command=================
dump 			2 all cfg 5000 ./dump/dump.tensile_*.cfg mass type xs ys zs vx vy vz id

#================Run simulation=====================
run 			50000
Generated 0 of 0 mixed pair_coeff terms from geometric mixing rule
Neighbor list info ...
  update: every = 1 steps, delay = 0 steps, check = yes
  max neighbors/atom: 2000, page size: 100000
  master list distance cutoff = 4.5
  ghost atom cutoff = 4.5
  binsize = 2.25, bins = 45 45 45
  1 neighbor lists, perpetual/occasional/extra = 1 0 0
  (1) pair lj/cut, perpetual
      attributes: half, newton on
      pair build: half/bin/atomonly/newton
      stencil: half/bin/3d
      bin: standard
Per MPI rank memory allocation (min/avg/max) = 3.533 | 3.533 | 3.533 Mbytes
   Step          Temp          TotEng         PotEng    
         0   0.001          2.682729e-05   0            
ERROR on proc 0: C