LAMMPS (15 Jun 2023)
OMP_NUM_THREADS environment is not set. Defaulting to 1 thread. (src/comm.cpp:98)
  using 1 OpenMP thread(s) per MPI task
Open of file C:\Users\adede\Desktop\LAMMPS USER-BFIELD Plugin 17Apr2024-MSMPI\bfieldplugin.so failed: 
Loaded 0 plugins from C:\Users\adede\Desktop\LAMMPS USER-BFIELD Plugin 17Apr2024-MSMPI
Loaded 1 plugins from C:\Users\adede\AppData\Local\LAMMPS 64-bit 15Jun2023\plugins
# REAX potential for CHO system
# .....

units		real

atom_style	charge
read_data	data.CHO
Reading data file ...
  orthogonal box = (0 0 0) to (25 25 25)
  1 by 1 by 1 MPI processor grid
  reading atoms ...
  105 atoms
  read_data CPU = 0.001 seconds

pair_style	reax/c lmp_control
WARNING: Ignoring inactive control parameter: simulation_name (src/REAXFF/reaxff_control.cpp:98)
WARNING: Ignoring inactive control parameter: energy_update_freq (src/REAXFF/reaxff_control.cpp:98)
WARNING: Support for writing native trajectories has been removed after LAMMPS version 8 April 2021 (src/REAXFF/reaxff_control.cpp:114)
WARNING: Ignoring inactive control parameter: traj_title (src/REAXFF/reaxff_control.cpp:98)
WARNING: Ignoring inactive control parameter: atom_info (src/REAXFF/reaxff_control.cpp:98)
WARNING: Ignoring inactive control parameter: atom_forces (src/REAXFF/reaxff_control.cpp:98)
WARNING: Ignoring inactive control parameter: atom_velocities (src/REAXFF/reaxff_control.cpp:98)
WARNING: Ignoring inactive control parameter: bond_info (src/REAXFF/reaxff_control.cpp:98)
WARNING: Ignoring inactive control parameter: angle_info (src/REAXFF/reaxff_control.cpp:98)
pair_coeff	* * ffield.reax.cho H C O
Reading potential file ffield.reax.cho with DATE: 2011-02-18

neighbor	2 bin
neigh_modify	every 10 delay 0 check no

fix		1 all nve
fix             2 all qeq/reax 1 0.0 10.0 1e-6 param.qeq
fix             3 all temp/berendsen 500.0 500.0 100.0

timestep	0.25

#dump		1 all atom 30 dump.reax.cho

run		3000

CITE-CITE-CITE-CITE-CITE-CITE-CITE-CITE-CITE-CITE-CITE-CITE-CITE

Your simulation uses code contributions which should be cited:

- pair reaxff command: doi:10.1016/j.parco.2011.08.005

@Article{Aktulga12,
 author = {H. M. Aktulga and J. C. Fogarty and S. A. Pandit and A. Y. Grama},
 title = {Parallel Reactive Molecular Dynamics: {N}umerical Methods and Algorithmic Techniques},
 journal = {Parallel Computing},
 year =    2012,
 volume =  38,
 number =  {4--5},
 pages =   {245--259}
}

- fix qeq/reaxff command: doi:10.1016/j.parco.2011.08.005

@Article{Aktulga12,
 author = {H. M. Aktulga and J. C. Fogarty and S. A. Pandit and A. Y. Grama},
 title = {Parallel Reactive Molecular Dynamics: {N}umerical Methods and Algorithmic Techniques},
 journal = {Parallel Computing},
 year =    2012,
 volume =  38,
 pages =   {245--259}
}

CITE-CITE-CITE-CITE-CITE-CITE-CITE-CITE-CITE-CITE-CITE-CITE-CITE

Neighbor list info ...
  update: every = 10 steps, delay = 0 steps, check = no
  max neighbors/atom: 2000, page size: 100000
  master list distance cutoff = 12
  ghost atom cutoff = 12
  binsize = 6, bins = 5 5 5
  2 neighbor lists, perpetual/occasional/extra = 2 0 0
  (1) pair reax/c, perpetual
      attributes: half, newton off, ghost
      pair build: half/bin/newtoff/ghost
      stencil: full/ghost/bin/3d
      bin: standard
  (2) fix qeq/reax, perpetual, copy from (1)
      attributes: half, newton off
      pair build: copy
      stencil: none
      bin: none
Per MPI rank memory allocation (min/avg/max) = 16.04 | 16.04 | 16.04 Mbytes
   Step          Temp          E_pair         E_mol          TotEng         Press     
         0   0             -10226.557      0             -10226.557     -106.09742    
      3000   548.45255     -10170.369      0             -10000.347      42.631532    
Loop time of 11.4338 on 1 procs for 3000 steps with 105 atoms

Performance: 5.667 ns/day, 4.235 hours/ns, 262.379 timesteps/s, 27.550 katom-step/s
99.6% CPU use with 1 MPI tasks x 1 OpenMP threads

MPI task timing breakdown:
Section |  min time  |  avg time  |  max time  |%varavg| %total
---------------------------------------------------------------
Pair    | 9.7629     | 9.7629     | 9.7629     |   0.0 | 85.39
Neigh   | 0.31937    | 0.31937    | 0.31937    |   0.0 |  2.79
Comm    | 0.024435   | 0.024435   | 0.024435   |   0.0 |  0.21
Output  | 0.000383   | 0.000383   | 0.000383   |   0.0 |  0.00
Modify  | 1.3047     | 1.3047     | 1.3047     |   0.0 | 11.41
Other   |            | 0.02206    |            |       |  0.19

Nlocal:            105 ave         105 max         105 min
Histogram: 1 0 0 0 0 0 0 0 0 0
Nghost:            643 ave         643 max         643 min
Histogram: 1 0 0 0 0 0 0 0 0 0
Neighs:           4237 ave        4237 max        4237 min
Histogram: 1 0 0 0 0 0 0 0 0 0

Total # of neighbors = 4237
Ave neighs/atom = 40.352381
Neighbor list builds = 300
Dangerous builds not checked
Total wall time: 0:00:11
