ITEM: TIMESTEP
0
ITEM: NUMBER OF ATOMS
54
ITEM: BOX BOUNDS pp pp pp
-5.0000000000000000e+01 5.0000000000000000e+01
-5.0000000000000000e+01 5.0000000000000000e+01
-5.0000000000000000e+01 5.0000000000000000e+01
ITEM: ATOMS id type xs ys zs
1 1 0.5 0.5 0.5
2 1 0.5176 0.5176 0.5176
3 1 0.5352 0.5 0.5
7 1 0.5 0.5352 0.5
9 1 0.5352 0.5352 0.5
19 1 0.5 0.5 0.5352
21 1 0.5352 0.5 0.5352
25 1 0.5 0.5352 0.5352
27 1 0.5352 0.5352 0.5352
4 1 0.5528 0.5176 0.5176
5 1 0.5704 0.5 0.5
11 1 0.5704 0.5352 0.5
23 1 0.5704 0.5 0.5352
29 1 0.5704 0.5352 0.5352
6 1 0.588 0.5176 0.5176
8 1 0.5176 0.5528 0.5176
13 1 0.5 0.5704 0.5
15 1 0.5352 0.5704 0.5
31 1 0.5 0.5704 0.5352
33 1 0.5352 0.5704 0.5352
10 1 0.5528 0.5528 0.5176
17 1 0.5704 0.5704 0.5
35 1 0.5704 0.5704 0.5352
12 1 0.588 0.5528 0.5176
14 1 0.5176 0.588 0.5176
16 1 0.5528 0.588 0.5176
18 1 0.588 0.588 0.5176
20 1 0.5176 0.5176 0.5528
37 1 0.5 0.5 0.5704
39 1 0.5352 0.5 0.5704
43 1 0.5 0.5352 0.5704
45 1 0.5352 0.5352 0.5704
22 1 0.5528 0.5176 0.5528
41 1 0.5704 0.5 0.5704
47 1 0.5704 0.5352 0.5704
24 1 0.588 0.5176 0.5528
26 1 0.5176 0.5528 0.5528
49 1 0.5 0.5704 0.5704
51 1 0.5352 0.5704 0.5704
28 1 0.5528 0.5528 0.5528
53 1 0.5704 0.5704 0.5704
30 1 0.588 0.5528 0.5528
32 1 0.5176 0.588 0.5528
34 1 0.5528 0.588 0.5528
36 1 0.588 0.588 0.5528
38 1 0.5176 0.5176 0.588
40 1 0.5528 0.5176 0.588
42 1 0.588 0.5176 0.588
44 1 0.5176 0.5528 0.588
46 1 0.5528 0.5528 0.588
48 1 0.588 0.5528 0.588
50 1 0.5176 0.588 0.588
52 1 0.5528 0.588 0.588
54 1 0.588 0.588 0.588
ITEM: TIMESTEP
100000
ITEM: NUMBER OF ATOMS
54
ITEM: BOX BOUNDS pp pp pp
-5.0000000000000000e+01 5.0000000000000000e+01
-5.0000000000000000e+01 5.0000000000000000e+01
-5.0000000000000000e+01 5.0000000000000000e+01
ITEM: ATOMS id type xs ys zs
1 1 0.508199 0.508131 0.505226
2 1 0.52167 0.522326 0.52171
3 1 0.536096 0.505837 0.505607
7 1 0.505474 0.536222 0.505433
9 1 0.53669 0.536518 0.504807
19 1 0.506524 0.505455 0.536399
21 1 0.535376 0.50455 0.535701
25 1 0.504165 0.535838 0.5362
27 1 0.536146 0.536482 0.536475
4 1 0.551771 0.521197 0.521407
5 1 0.565259 0.505278 0.506268
11 1 0.566992 0.536037 0.505505
23 1 0.566997 0.504603 0.536404
29 1 0.568028 0.536381 0.537161
6 1 0.582899 0.520532 0.521643
8 1 0.521143 0.550933 0.520946
13 1 0.505032 0.566514 0.50742
15 1 0.535936 0.566783 0.505797
31 1 0.504414 0.566786 0.53566
33 1 0.53651 0.566565 0.536194
10 1 0.552399 0.55202 0.520923
17 1 0.566974 0.567048 0.505127
35 1 0.567699 0.566403 0.537019
12 1 0.58318 0.551217 0.521092
14 1 0.521259 0.58305 0.521563
16 1 0.552188 0.582607 0.521238
18 1 0.582219 0.581675 0.52124
20 1 0.521655 0.520773 0.551875
37 1 0.505297 0.506128 0.566224
39 1 0.535954 0.504856 0.566165
43 1 0.504913 0.536084 0.566574
45 1 0.53606 0.536231 0.567886
22 1 0.551425 0.519893 0.551623
41 1 0.567364 0.504716 0.566415
47 1 0.566361 0.535981 0.566913
24 1 0.583047 0.519989 0.552054
26 1 0.520305 0.551636 0.551783
49 1 0.50558 0.567753 0.566906
51 1 0.536467 0.566989 0.566943
28 1 0.551459 0.551507 0.55201
53 1 0.566135 0.568051 0.566499
30 1 0.583499 0.551447 0.553185
32 1 0.5206 0.582745 0.551369
34 1 0.550278 0.584241 0.551631
36 1 0.582432 0.582785 0.551599
38 1 0.520627 0.521087 0.582986
40 1 0.551741 0.520283 0.582489
42 1 0.583196 0.521665 0.58043
44 1 0.521003 0.551139 0.582877
46 1 0.551972 0.55231 0.583742
48 1 0.582709 0.552666 0.581145
50 1 0.522243 0.582562 0.582366
52 1 0.551396 0.583488 0.581714
54 1 0.581044 0.582007 0.580435
ITEM: TIMESTEP
200000
ITEM: NUMBER OF ATOMS
54
ITEM: BOX BOUNDS pp pp pp
-5.0000000000000000e+01 5.0000000000000000e+01
-5.0000000000000000e+01 5.0000000000000000e+01
-5.0000000000000000e+01 5.0000000000000000e+01
ITEM: ATOMS id type xs ys zs
1 1 0.51809 0.495023 0.516886
2 1 0.520444 0.522066 0.519271
9 1 0.537114 0.53639 0.503717
19 1 0.504718 0.506171 0.536639
21 1 0.535175 0.505396 0.533825
25 1 0.503887 0.536419 0.534455
27 1 0.535173 0.5356 0.535873
3 1 0.537193 0.507429 0.50406
4 1 0.552256 0.522166 0.52103
5 1 0.566697 0.507187 0.505338
11 1 0.566334 0.536956 0.505812
23 1 0.566804 0.505483 0.534053
29 1 0.567427 0.537165 0.536719
6 1 0.583961 0.523198 0.521113
7 1 0.511016 0.54157 0.501067
8 1 0.520615 0.552885 0.521828
13 1 0.507958 0.567334 0.504724
15 1 0.534805 0.566863 0.504356
31 1 0.503977 0.56731 0.537506
33 1 0.535866 0.568417 0.538419
10 1 0.550317 0.551819 0.521499
17 1 0.564936 0.565966 0.507155
35 1 0.567007 0.565916 0.536236
12 1 0.582947 0.552855 0.520935
14 1 0.52059 0.583595 0.52276
16 1 0.551325 0.582896 0.521544
18 1 0.582142 0.581864 0.52157
20 1 0.52042 0.5211 0.5515
37 1 0.506293 0.506256 0.565519
39 1 0.534526 0.505313 0.567239
43 1 0.504662 0.534778 0.568946
45 1 0.53534 0.535752 0.566267
22 1 0.550597 0.519573 0.551184
41 1 0.565692 0.506103 0.566619
47 1 0.566015 0.535401 0.566736
24 1 0.582938 0.521021 0.552662
26 1 0.519307 0.55143 0.552768
49 1 0.50416 0.565374 0.568553
51 1 0.535218 0.567213 0.567148
28 1 0.551361 0.552361 0.552948
53 1 0.566696 0.56781 0.567271
30 1 0.582889 0.552397 0.553828
54 1 0.593257 0.571145 0.569768
32 1 0.518647 0.583268 0.553732
34 1 0.55117 0.584444 0.552796
36 1 0.581685 0.583505 0.548953
38 1 0.520407 0.521258 0.583544
40 1 0.550213 0.520858 0.582833
42 1 0.582031 0.521535 0.581185
44 1 0.521317 0.552577 0.583965
46 1 0.551209 0.553137 0.584241
48 1 0.580149 0.550293 0.583057
50 1 0.521567 0.583405 0.581618
52 1 0.549458 0.582753 0.582731
ITEM: TIMESTEP
300000
ITEM: NUMBER OF ATOMS
54
ITEM: BOX BOUNDS pp pp pp
-5.0000000000000000e+01 5.0000000000000000e+01
-5.0000000000000000e+01 5.0000000000000000e+01
-5.0000000000000000e+01 5.0000000000000000e+01
ITEM: ATOMS id type xs ys zs
11 1 0.557255 0.533365 0.499228
17 1 0.557738 0.563638 0.499446
1 1 0.528803 0.492094 0.514527
19 1 0.509199 0.49621 0.539778
3 1 0.555325 0.491177 0.519795
2 1 0.518437 0.515276 0.521811
27 1 0.532967 0.532393 0.533875
9 1 0.529002 0.53312 0.504456
25 1 0.503183 0.530088 0.540482
4 1 0.547283 0.516327 0.51863
5 1 0.572462 0.514354 0.51278
29 1 0.563236 0.533895 0.532018
23 1 0.568329 0.507547 0.538659
6 1 0.590286 0.527415 0.52706
7 1 0.530153 0.56182 0.501344
8 1 0.514248 0.546862 0.520784
33 1 0.530967 0.565388 0.531125
10 1 0.545646 0.548255 0.518081
35 1 0.561882 0.566144 0.530255
12 1 0.576307 0.547087 0.514564
13 1 0.51626 0.579803 0.515052
14 1 0.528094 0.59547 0.532518
15 1 0.54477 0.58095 0.515852
16 1 0.56096 0.597784 0.527968
18 1 0.575758 0.580516 0.514116
21 1 0.537846 0.501666 0.538804
37 1 0.496698 0.510725 0.560102
20 1 0.521649 0.516569 0.551823
43 1 0.504208 0.534943 0.566673
45 1 0.532195 0.536024 0.565773
39 1 0.539162 0.504588 0.56954
22 1 0.550927 0.521367 0.55231
41 1 0.567704 0.511283 0.569793
24 1 0.582468 0.526893 0.552481
26 1 0.518047 0.549532 0.547911
49 1 0.505786 0.564979 0.567943
51 1 0.532193 0.566175 0.562936
47 1 0.564771 0.540459 0.56494
28 1 0.547167 0.550316 0.547836
53 1 0.564883 0.565067 0.559603
30 1 0.580573 0.550892 0.541558
54 1 0.588962 0.548106 0.566364
31 1 0.513108 0.578841 0.546172
32 1 0.526375 0.59145 0.566256
34 1 0.547545 0.580746 0.547349
36 1 0.57742 0.583286 0.54379
38 1 0.518535 0.517407 0.578707
40 1 0.549969 0.526829 0.583583
42 1 0.579168 0.528441 0.585064
44 1 0.519522 0.548801 0.584812
50 1 0.522745 0.574956 0.586586
46 1 0.546057 0.553285 0.581054
48 1 0.571831 0.55571 0.585014
52 1 0.549935 0.579688 0.577018
ITEM: TIMESTEP
400000
ITEM: NUMBER OF ATOMS
54
ITEM: BOX BOUNDS pp pp pp
-5.0000000000000000e+01 5.0000000000000000e+01
-5.0000000000000000e+01 5.0000000000000000e+01
-5.0000000000000000e+01 5.0000000000000000e+01
ITEM: ATOMS id type xs ys zs
11 1 0.566769 0.540494 0.497123
17 1 0.566771 0.568127 0.498458
3 1 0.553855 0.496942 0.512809
1 1 0.529139 0.503608 0.505129
2 1 0.513816 0.515811 0.521921
9 1 0.523284 0.532117 0.502407
27 1 0.533053 0.536029 0.52645
21 1 0.539717 0.509832 0.531444
4 1 0.548621 0.52269 0.508605
5 1 0.573727 0.51744 0.51166
29 1 0.561511 0.533984 0.528445
23 1 0.565451 0.508776 0.535183
6 1 0.587853 0.524848 0.533949
8 1 0.506395 0.540736 0.524787
7 1 0.521588 0.562117 0.510393
33 1 0.531673 0.564023 0.53365
13 1 0.505605 0.566435 0.53107
10 1 0.545523 0.55073 0.507859
35 1 0.563149 0.5607 0.523754
15 1 0.543575 0.577261 0.512117
12 1 0.584614 0.544821 0.517516
18 1 0.587473 0.571136 0.515818
14 1 0.523583 0.588804 0.532454
16 1 0.567127 0.588209 0.516798
19 1 0.516814 0.495445 0.541296
39 1 0.534438 0.501857 0.558139
25 1 0.497247 0.516552 0.544128
37 1 0.50934 0.504917 0.564369
20 1 0.520635 0.522978 0.546513
43 1 0.506199 0.532146 0.567182
38 1 0.526476 0.516764 0.579208
22 1 0.546785 0.524552 0.551932
41 1 0.552538 0.516897 0.576212
24 1 0.572015 0.525588 0.556746
45 1 0.533275 0.540276 0.569106
26 1 0.51646 0.548798 0.549745
49 1 0.513478 0.557512 0.576052
51 1 0.536492 0.565332 0.561855
31 1 0.513135 0.575522 0.555473
47 1 0.559248 0.54375 0.570697
28 1 0.550831 0.549119 0.545631
53 1 0.566008 0.566813 0.559368
30 1 0.580111 0.549661 0.544522
54 1 0.584409 0.548815 0.572032
32 1 0.533993 0.593679 0.556683
34 1 0.551258 0.580739 0.539575
52 1 0.551949 0.582835 0.57375
36 1 0.580534 0.579328 0.540958
44 1 0.521747 0.541689 0.595004
40 1 0.54686 0.533744 0.594649
42 1 0.575275 0.531693 0.589636
46 1 0.541349 0.56042 0.587461
48 1 0.566171 0.561084 0.588998
50 1 0.527059 0.581827 0.579284
ITEM: TIMESTEP
500000
ITEM: NUMBER OF ATOMS
54
ITEM: BOX BOUNDS pp pp pp
-5.0000000000000000e+01 5.0000000000000000e+01
-5.0000000000000000e+01 5.0000000000000000e+01
-5.0000000000000000e+01 5.0000000000000000e+01
ITEM: ATOMS id type xs ys zs
17 1 0.554349 0.561908 0.497327
19 1 0.530905 0.488095 0.520621
23 1 0.551137 0.498396 0.537467
1 1 0.529399 0.510343 0.501512
9 1 0.514403 0.532823 0.512182
2 1 0.511256 0.503924 0.519022
21 1 0.534405 0.514401 0.525389
25 1 0.509405 0.529448 0.538076
3 1 0.55682 0.507763 0.510611
4 1 0.544257 0.530974 0.504828
29 1 0.560006 0.526044 0.529371
5 1 0.581261 0.519475 0.513913
10 1 0.529551 0.554498 0.504949
7 1 0.509443 0.555414 0.52465
27 1 0.535322 0.541098 0.527636
33 1 0.535394 0.569105 0.529797
11 1 0.569332 0.54023 0.502943
35 1 0.557945 0.554974 0.52155
12 1 0.582544 0.54335 0.526419
18 1 0.576916 0.568431 0.508621
13 1 0.515686 0.587811 0.522191
15 1 0.532137 0.579468 0.503208
14 1 0.539205 0.600828 0.525759
16 1 0.557176 0.582885 0.5198
39 1 0.541888 0.496106 0.563422
37 1 0.523638 0.504176 0.546128
43 1 0.512996 0.530536 0.565572
38 1 0.53497 0.518518 0.576192
20 1 0.538909 0.524333 0.550546
22 1 0.563655 0.513073 0.554087
47 1 0.558393 0.535701 0.572538
6 1 0.587852 0.519543 0.541751
24 1 0.582121 0.523828 0.57092
8 1 0.49709 0.548472 0.55078
45 1 0.537275 0.546007 0.571456
26 1 0.523539 0.549381 0.547928
49 1 0.513739 0.558604 0.57173
51 1 0.537453 0.568896 0.559642
31 1 0.509812 0.571693 0.546004
28 1 0.551802 0.549804 0.546531
53 1 0.562555 0.563351 0.5674
30 1 0.574216 0.541059 0.550481
36 1 0.575312 0.570128 0.539596
54 1 0.583291 0.54923 0.577587
32 1 0.529581 0.591698 0.547527
50 1 0.521248 0.585045 0.573449
34 1 0.555387 0.587367 0.546094
52 1 0.548728 0.590467 0.572479
41 1 0.558826 0.50948 0.581362
42 1 0.572153 0.531921 0.595329
40 1 0.545108 0.534243 0.595197
44 1 0.519123 0.539481 0.588747
46 1 0.536581 0.567064 0.586588
48 1 0.560502 0.555106 0.591097
ITEM: TIMESTEP
600000
ITEM: NUMBER OF ATOMS
54
ITEM: BOX BOUNDS pp pp pp
-5.0000000000000000e+01 5.0000000000000000e+01
-5.0000000000000000e+01 5.0000000000000000e+01
-5.0000000000000000e+01 5.0000000000000000e+01
ITEM: ATOMS id type xs ys zs
1 1 0.526945 0.508497 0.497005
17 1 0.556834 0.556546 0.491847
19 1 0.529675 0.491972 0.519335
9 1 0.514656 0.53174 0.509549
2 1 0.506802 0.507646 0.519987
21 1 0.530613 0.517648 0.523092
25 1 0.509339 0.530701 0.534233
4 1 0.542761 0.531865 0.503768
3 1 0.552769 0.50482 0.510104
29 1 0.554932 0.529326 0.52944
11 1 0.56743 0.535532 0.504514
5 1 0.582596 0.515961 0.514531
10 1 0.527734 0.559074 0.502989
7 1 0.507579 0.556708 0.521991
27 1 0.532384 0.544996 0.524602
33 1 0.531516 0.568242 0.533668
35 1 0.55588 0.55576 0.519703
18 1 0.580528 0.560044 0.510039
36 1 0.575127 0.565586 0.538165
12 1 0.578408 0.54065 0.527574
13 1 0.516997 0.581225 0.516664
14 1 0.532424 0.596432 0.529809
15 1 0.543445 0.576584 0.509678
16 1 0.569264 0.580856 0.514461
37 1 0.518828 0.505919 0.545361
43 1 0.513583 0.528508 0.564373
20 1 0.534851 0.52656 0.545815
38 1 0.535345 0.511173 0.565888
23 1 0.549607 0.502321 0.539696
39 1 0.570076 0.504628 0.5653
22 1 0.556699 0.52633 0.556297
6 1 0.576831 0.515206 0.542095
24 1 0.582995 0.524569 0.572682
8 1 0.494796 0.5487 0.553649
45 1 0.535495 0.538598 0.569532
26 1 0.520372 0.549697 0.549124
49 1 0.510101 0.557552 0.572526
31 1 0.511778 0.574191 0.546191
51 1 0.538683 0.563702 0.563273
28 1 0.551976 0.551241 0.546019
53 1 0.570209 0.570779 0.563458
47 1 0.560361 0.546652 0.573681
30 1 0.578697 0.545169 0.556288
32 1 0.532815 0.589257 0.554368
34 1 0.554178 0.580878 0.541639
52 1 0.546006 0.584777 0.577098
44 1 0.528002 0.522893 0.589651
41 1 0.554724 0.51849 0.58457
46 1 0.533496 0.562848 0.5892
42 1 0.57424 0.534351 0.596131
40 1 0.547593 0.541852 0.597024
48 1 0.561739 0.566181 0.591281
54 1 0.585607 0.552804 0.581016
50 1 0.519681 0.581761 0.576024
ITEM: TIMESTEP
700000
ITEM: NUMBER OF ATOMS
54
ITEM: BOX BOUNDS pp pp pp
-5.0000000000000000e+01 5.0000000000000000e+01
-5.0000000000000000e+01 5.0000000000000000e+01
-5.0000000000000000e+01 5.0000000000000000e+01
ITEM: ATOMS id type xs ys zs
10 1 0.520801 0.549465 0.495947
19 1 0.534222 0.492049 0.522286
23 1 0.555071 0.497934 0.537272
1 1 0.530282 0.508792 0.502002
9 1 0.516345 0.529391 0.512168
2 1 0.512378 0.5096 0.530464
21 1 0.537633 0.517655 0.526679
4 1 0.542212 0.533089 0.5039
3 1 0.558216 0.508129 0.510045
29 1 0.561919 0.526357 0.52881
11 1 0.567932 0.538586 0.504654
5 1 0.584278 0.517729 0.518809
7 1 0.509535 0.552976 0.522399
27 1 0.537516 0.547302 0.52117
15 1 0.532017 0.573332 0.514883
17 1 0.550283 0.557943 0.500785
35 1 0.561956 0.556307 0.523896
12 1 0.584365 0.544598 0.52561
36 1 0.581798 0.574952 0.532465
18 1 0.579821 0.564934 0.506957
13 1 0.516312 0.580206 0.535048
14 1 0.541485 0.597304 0.528446
16 1 0.562218 0.583011 0.517403
39 1 0.562119 0.497433 0.564185
25 1 0.497027 0.534445 0.538242
37 1 0.531229 0.501602 0.549581
43 1 0.509167 0.51461 0.557337
20 1 0.524486 0.531623 0.54506
38 1 0.533802 0.505884 0.574183
45 1 0.535016 0.536915 0.568007
22 1 0.549665 0.521097 0.555563
24 1 0.573809 0.522033 0.569383
6 1 0.580617 0.513191 0.545258
8 1 0.49537 0.563215 0.543385
26 1 0.522711 0.557222 0.546242
31 1 0.507024 0.570466 0.566156
49 1 0.506505 0.542128 0.563059
51 1 0.5418 0.565275 0.565247
33 1 0.544018 0.572895 0.539812
28 1 0.548414 0.547347 0.544943
53 1 0.566394 0.565555 0.554243
47 1 0.557505 0.544603 0.5689
30 1 0.575227 0.539531 0.548131
54 1 0.584324 0.552346 0.570258
32 1 0.531125 0.588588 0.555846
34 1 0.565522 0.593917 0.54193
52 1 0.553792 0.59097 0.568434
44 1 0.520112 0.526493 0.586001
41 1 0.54901 0.523897 0.584983
46 1 0.521034 0.555665 0.582114
42 1 0.569246 0.540506 0.590315
40 1 0.544206 0.548673 0.593464
48 1 0.56173 0.567635 0.585109
50 1 0.535395 0.578601 0.588531
ITEM: TIMESTEP
800000
ITEM: NUMBER OF ATOMS
54
ITEM: BOX BOUNDS pp pp pp
-5.0000000000000000e+01 5.0000000000000000e+01
-5.0000000000000000e+01 5.0000000000000000e+01
-5.0000000000000000e+01 5.0000000000000000e+01
ITEM: ATOMS id type xs ys zs
1 1 0.532266 0.516136 0.49949
10 1 0.533997 0.560877 0.495766
2 1 0.501939 0.500915 0.534887
19 1 0.524992 0.497717 0.521509
49 1 0.507047 0.526555 0.533401
25 1 0.509051 0.514101 0.507211
21 1 0.53341 0.52512 0.52698
3 1 0.552218 0.51247 0.513962
29 1 0.557062 0.535087 0.532519
11 1 0.578606 0.525626 0.510957
23 1 0.546508 0.499166 0.537919
7 1 0.500482 0.549186 0.524619
9 1 0.519536 0.539077 0.508392
15 1 0.516313 0.568019 0.51608
26 1 0.523021 0.551911 0.537056
4 1 0.548476 0.536392 0.503176
27 1 0.540609 0.552756 0.520071
17 1 0.558728 0.569921 0.497702
35 1 0.560358 0.566515 0.537208
12 1 0.570575 0.55295 0.516961
36 1 0.585761 0.573017 0.535805
14 1 0.523367 0.592973 0.528488
16 1 0.54125 0.578002 0.515861
18 1 0.566963 0.583643 0.519393
52 1 0.548678 0.59413 0.53809
39 1 0.552939 0.499702 0.563622
6 1 0.575226 0.493151 0.555858
43 1 0.500072 0.519189 0.559929
37 1 0.522735 0.506149 0.548622
20 1 0.523083 0.531781 0.555344
5 1 0.574813 0.516219 0.539224
22 1 0.54905 0.525577 0.555833
24 1 0.575934 0.518868 0.563644
8 1 0.502294 0.547623 0.551857
33 1 0.534177 0.573899 0.541403
13 1 0.507758 0.572969 0.541341
31 1 0.524448 0.560439 0.56344
28 1 0.546593 0.55147 0.554719
47 1 0.565677 0.537467 0.572942
30 1 0.574922 0.544707 0.546534
53 1 0.572507 0.564219 0.562923
54 1 0.591161 0.547664 0.569228
32 1 0.520608 0.591451 0.555648
51 1 0.547613 0.581168 0.559768
34 1 0.571672 0.589582 0.549617
38 1 0.524944 0.512688 0.575004
44 1 0.509663 0.539007 0.575871
41 1 0.553589 0.515845 0.582809
42 1 0.582737 0.532168 0.590777
45 1 0.540023 0.537834 0.580499
40 1 0.554751 0.54023 0.598661
46 1 0.550976 0.56148 0.578433
48 1 0.576058 0.556073 0.590849
50 1 0.568765 0.585119 0.578099
ITEM: TIMESTEP
900000
ITEM: NUMBER OF ATOMS
54
ITEM: BOX BOUNDS pp pp pp
-5.0000000000000000e+01 5.0000000000000000e+01
-5.0000000000000000e+01 5.0000000000000000e+01
-5.0000000000000000e+01 5.0000000000000000e+01
ITEM: ATOMS id type xs ys zs
11 1 0.531293 0.516779 0.495431
10 1 0.53749 0.567763 0.494929
4 1 0.550364 0.542738 0.494408
49 1 0.501442 0.523456 0.535623
25 1 0.507318 0.524597 0.50511
2 1 0.522447 0.510906 0.519703
26 1 0.516877 0.544729 0.532289
1 1 0.551213 0.520695 0.510498
3 1 0.563516 0.510195 0.537145
21 1 0.54065 0.528571 0.532829
36 1 0.58556 0.528406 0.531967
7 1 0.494512 0.549473 0.518635
9 1 0.519643 0.547794 0.499726
15 1 0.521515 0.568324 0.517903
33 1 0.528957 0.564396 0.542745
29 1 0.567192 0.541649 0.517712
27 1 0.541347 0.552263 0.513641
17 1 0.562671 0.566288 0.504818
35 1 0.554384 0.56478 0.53398
12 1 0.582486 0.561733 0.534892
14 1 0.517187 0.592309 0.533334
16 1 0.542224 0.586474 0.511633
18 1 0.570464 0.586686 0.521572
52 1 0.543585 0.591337 0.536722
39 1 0.532486 0.492987 0.561175
19 1 0.540595 0.498925 0.532458
23 1 0.558427 0.493742 0.561477
43 1 0.495826 0.521856 0.563059
37 1 0.520799 0.512013 0.54546
20 1 0.520958 0.5366 0.557136
38 1 0.520848 0.51509 0.571385
22 1 0.547931 0.518056 0.560141
47 1 0.565813 0.537459 0.568004
30 1 0.57797 0.517178 0.55652
8 1 0.495459 0.545678 0.548244
13 1 0.501289 0.57063 0.538779
31 1 0.51374 0.560805 0.564815
5 1 0.565061 0.539023 0.540685
28 1 0.545421 0.549411 0.555191
53 1 0.569626 0.561041 0.557245
51 1 0.546533 0.576638 0.562172
24 1 0.589897 0.541348 0.55337
54 1 0.593984 0.571851 0.560267
32 1 0.518457 0.58698 0.558719
34 1 0.574634 0.583999 0.545808
50 1 0.573924 0.581459 0.574652
45 1 0.541452 0.533852 0.579237
6 1 0.565229 0.51445 0.583079
41 1 0.542589 0.503055 0.581075
40 1 0.56653 0.537414 0.598489
42 1 0.587888 0.526862 0.579855
44 1 0.508991 0.539805 0.577321
46 1 0.556647 0.561145 0.582571
48 1 0.582662 0.554307 0.580363
ITEM: TIMESTEP
1000000
ITEM: NUMBER OF ATOMS
54
ITEM: BOX BOUNDS pp pp pp
-5.0000000000000000e+01 5.0000000000000000e+01
-5.0000000000000000e+01 5.0000000000000000e+01
-5.0000000000000000e+01 5.0000000000000000e+01
ITEM: ATOMS id type xs ys zs
4 1 0.564706 0.539377 0.499097
10 1 0.539285 0.541459 0.488774
25 1 0.498452 0.5302 0.530955
9 1 0.518888 0.531859 0.506208
21 1 0.52413 0.515599 0.531551
11 1 0.544155 0.526131 0.51304
3 1 0.573592 0.513841 0.511126
19 1 0.55509 0.51155 0.534803
1 1 0.567773 0.537064 0.529055
36 1 0.589729 0.534458 0.516528
30 1 0.582259 0.510377 0.532345
7 1 0.497262 0.542051 0.51054
49 1 0.480954 0.554985 0.532256
15 1 0.518357 0.560253 0.501122
13 1 0.501465 0.566403 0.520869
26 1 0.520528 0.545196 0.525728
33 1 0.52925 0.569618 0.528484
27 1 0.545848 0.553094 0.512516
29 1 0.575149 0.558877 0.515226
35 1 0.557772 0.564226 0.535474
14 1 0.518999 0.589106 0.510017
52 1 0.530197 0.599506 0.533113
32 1 0.504582 0.590435 0.531505
16 1 0.549969 0.587975 0.517897
17 1 0.575879 0.579257 0.527153
37 1 0.531129 0.49699 0.576789
23 1 0.560844 0.491732 0.566282
2 1 0.510849 0.510887 0.553415
20 1 0.516178 0.537278 0.555781
22 1 0.538462 0.512687 0.55587
47 1 0.566244 0.521212 0.557478
5 1 0.542509 0.534417 0.540107
24 1 0.59131 0.533539 0.544502
6 1 0.589336 0.50656 0.558482
42 1 0.587395 0.53804 0.568918
43 1 0.501479 0.543425 0.577712
31 1 0.505897 0.558716 0.545896
45 1 0.524121 0.564364 0.573915
28 1 0.53551 0.558659 0.548664
41 1 0.544435 0.539541 0.567664
53 1 0.564659 0.547493 0.55463
51 1 0.548826 0.570863 0.567921
34 1 0.57375 0.57583 0.55544
12 1 0.587461 0.55993 0.540249
8 1 0.5235 0.581272 0.553076
18 1 0.554092 0.587188 0.543385
38 1 0.522394 0.526581 0.578867
44 1 0.504859 0.510666 0.584533
39 1 0.54707 0.51513 0.580722
48 1 0.567774 0.531275 0.584246
40 1 0.574517 0.509726 0.578703
46 1 0.549136 0.551545 0.590255
50 1 0.576785 0.548783 0.600818
54 1 0.571207 0.55877 0.576296
ITEM: TIMESTEP
1100000
ITEM: NUMBER OF ATOMS
54
ITEM: BOX BOUNDS pp pp pp
-5.0000000000000000e+01 5.0000000000000000e+01
-5.0000000000000000e+01 5.0000000000000000e+01
-5.0000000000000000e+01 5.0000000000000000e+01
ITEM: ATOMS id type xs ys zs
11 1 0.528444 0.534937 0.497085
9 1 0.557476 0.531569 0.483256
7 1 0.547951 0.554985 0.491714
49 1 0.495085 0.527225 0.534189
21 1 0.52811 0.525087 0.522791
3 1 0.538552 0.512647 0.502432
4 1 0.554997 0.519093 0.528698
29 1 0.551755 0.534754 0.508957
36 1 0.565334 0.510888 0.504033
30 1 0.581176 0.511838 0.532226
31 1 0.50025 0.560174 0.53316
25 1 0.503727 0.540755 0.514942
15 1 0.52721 0.55407 0.515291
10 1 0.575475 0.543407 0.501798
5 1 0.545636 0.54063 0.537152
1 1 0.576984 0.540264 0.528408
35 1 0.557512 0.560251 0.518573
12 1 0.583862 0.568032 0.532621
14 1 0.50721 0.578449 0.513115
52 1 0.521021 0.598624 0.522964
33 1 0.535389 0.5802 0.532141
16 1 0.539071 0.582185 0.506533
17 1 0.560625 0.584751 0.52615
18 1 0.54481 0.60668 0.529104
23 1 0.541528 0.492049 0.561438
2 1 0.5199 0.507142 0.569913
20 1 0.536707 0.516771 0.546885
44 1 0.510917 0.528247 0.55923
41 1 0.538473 0.537704 0.565608
47 1 0.56743 0.503425 0.555774
19 1 0.56544 0.531781 0.551329
22 1 0.551201 0.514261 0.574052
6 1 0.587362 0.521992 0.566473
43 1 0.483804 0.542716 0.548908
27 1 0.5183 0.545109 0.538097
26 1 0.509167 0.554738 0.56315
28 1 0.532912 0.561536 0.554134
53 1 0.562463 0.561619 0.546624
51 1 0.555964 0.567526 0.56918
24 1 0.595383 0.541348 0.545172
42 1 0.581003 0.555478 0.566162
8 1 0.52883 0.584032 0.57005
13 1 0.51468 0.577608 0.545525
32 1 0.52821 0.601419 0.548079
34 1 0.551446 0.587951 0.552171
54 1 0.573744 0.58199 0.554611
39 1 0.559553 0.489719 0.582651
37 1 0.533012 0.49871 0.591061
45 1 0.521748 0.528818 0.584709
50 1 0.565805 0.53757 0.578377
38 1 0.547431 0.527649 0.598314
48 1 0.556997 0.502833 0.603925
40 1 0.575774 0.514272 0.585841
46 1 0.533153 0.558491 0.581224
ITEM: TIMESTEP
1200000
ITEM: NUMBER OF ATOMS
54
ITEM: BOX BOUNDS pp pp pp
-5.0000000000000000e+01 5.0000000000000000e+01
-5.0000000000000000e+01 5.0000000000000000e+01
-5.0000000000000000e+01 5.0000000000000000e+01
ITEM: ATOMS id type xs ys zs
9 1 0.53702 0.543414 0.492491
35 1 0.552676 0.572796 0.499736
11 1 0.515053 0.531319 0.50491
25 1 0.51446 0.531991 0.533003
21 1 0.534312 0.508212 0.533461
3 1 0.540443 0.521458 0.510992
4 1 0.563573 0.507832 0.526314
36 1 0.565065 0.52457 0.500836
5 1 0.549423 0.530889 0.534216
30 1 0.587636 0.518761 0.51181
31 1 0.489414 0.539963 0.538305
7 1 0.521706 0.567768 0.500692
13 1 0.501948 0.551871 0.518412
29 1 0.530605 0.544388 0.51794
27 1 0.514147 0.560677 0.538343
15 1 0.539589 0.569748 0.522037
10 1 0.554769 0.550697 0.511546
17 1 0.566034 0.576299 0.524065
53 1 0.565931 0.552098 0.53858
1 1 0.579645 0.540591 0.51705
14 1 0.508755 0.58144 0.520265
16 1 0.532105 0.59398 0.506113
52 1 0.527248 0.588541 0.536978
18 1 0.550132 0.596002 0.525107
23 1 0.553477 0.490425 0.544143
39 1 0.553448 0.496904 0.575448
2 1 0.488955 0.526213 0.566225
49 1 0.532256 0.500696 0.561011
43 1 0.509054 0.51453 0.554834
44 1 0.532032 0.526621 0.554216
47 1 0.576076 0.501725 0.55459
20 1 0.552761 0.513518 0.553777
6 1 0.570647 0.519572 0.574469
19 1 0.575117 0.526627 0.542662
26 1 0.510224 0.543138 0.558996
46 1 0.526142 0.570131 0.560205
45 1 0.529639 0.546664 0.572257
41 1 0.555488 0.539596 0.560348
28 1 0.538177 0.55351 0.544359
51 1 0.553405 0.563343 0.572992
12 1 0.57541 0.566984 0.552425
24 1 0.593818 0.546441 0.541978
42 1 0.57972 0.542747 0.564961
32 1 0.539619 0.592725 0.564655
54 1 0.576357 0.592324 0.542499
33 1 0.551237 0.577143 0.548337
8 1 0.56728 0.58726 0.567452
34 1 0.549065 0.606593 0.545726
38 1 0.517365 0.522404 0.579046
37 1 0.532039 0.502548 0.589404
48 1 0.537585 0.526419 0.603093
22 1 0.541161 0.523153 0.576338
40 1 0.560166 0.510761 0.598418
50 1 0.556594 0.539978 0.587932
ITEM: TIMESTEP
1300000
ITEM: NUMBER OF ATOMS
54
ITEM: BOX BOUNDS pp pp pp
-5.0000000000000000e+01 5.0000000000000000e+01
-5.0000000000000000e+01 5.0000000000000000e+01
-5.0000000000000000e+01 5.0000000000000000e+01
ITEM: ATOMS id type xs ys zs
11 1 0.502287 0.538723 0.496821
9 1 0.535091 0.537425 0.486482
7 1 0.51895 0.557975 0.493521
25 1 0.501617 0.532248 0.525
3 1 0.519191 0.516529 0.504501
21 1 0.527786 0.521988 0.532282
4 1 0.570958 0.515661 0.510764
10 1 0.545007 0.524827 0.507461
1 1 0.571787 0.537507 0.526274
23 1 0.554118 0.517757 0.530009
30 1 0.598582 0.528605 0.529706
36 1 0.589663 0.536722 0.504593
47 1 0.577355 0.510488 0.537373
29 1 0.523847 0.541931 0.513459
13 1 0.501291 0.55666 0.514743
33 1 0.526245 0.566024 0.52281
52 1 0.506507 0.574604 0.535928
15 1 0.544728 0.557814 0.508131
35 1 0.564669 0.540208 0.499806
5 1 0.546121 0.541448 0.532341
17 1 0.566602 0.565274 0.51618
24 1 0.591154 0.557557 0.528251
14 1 0.505769 0.582512 0.507241
16 1 0.520362 0.595405 0.527284
18 1 0.546884 0.578832 0.53137
54 1 0.577422 0.58007 0.534676
43 1 0.51092 0.524227 0.554395
44 1 0.536939 0.533713 0.554792
49 1 0.539491 0.508502 0.558831
39 1 0.563354 0.500905 0.56943
20 1 0.562157 0.526586 0.552085
6 1 0.579719 0.524486 0.575476
19 1 0.586679 0.536977 0.550945
31 1 0.492182 0.551307 0.54207
27 1 0.517762 0.546844 0.539607
2 1 0.51773 0.545839 0.566507
26 1 0.507973 0.567561 0.55987
51 1 0.531447 0.569876 0.574166
28 1 0.535864 0.563162 0.549738
53 1 0.565734 0.555732 0.544016
41 1 0.55011 0.551243 0.567363
12 1 0.586294 0.566628 0.555359
46 1 0.528254 0.58603 0.548659
34 1 0.559275 0.576082 0.559781
38 1 0.525789 0.522056 0.579512
45 1 0.514915 0.535169 0.598238
22 1 0.552496 0.52666 0.579749
37 1 0.541321 0.503559 0.584995
48 1 0.54398 0.523321 0.605078
40 1 0.56604 0.50863 0.594878
8 1 0.536658 0.548282 0.590696
42 1 0.571903 0.549236 0.575083
50 1 0.561691 0.540753 0.59998
32 1 0.55533 0.567839 0.587696
ITEM: TIMESTEP
1400000
ITEM: NUMBER OF ATOMS
54
ITEM: BOX BOUNDS pp pp pp
-5.0000000000000000e+01 5.0000000000000000e+01
-5.0000000000000000e+01 5.0000000000000000e+01
-5.0000000000000000e+01 5.0000000000000000e+01
ITEM: ATOMS id type xs ys zs
9 1 0.531739 0.53564 0.492402
7 1 0.522196 0.564791 0.498814
25 1 0.500809 0.534318 0.526118
3 1 0.519417 0.516966 0.509394
21 1 0.522596 0.524555 0.537705
35 1 0.564873 0.525568 0.50198
10 1 0.545176 0.522035 0.520135
4 1 0.570114 0.510453 0.522592
30 1 0.589439 0.530233 0.517278
11 1 0.504982 0.542261 0.501929
29 1 0.52551 0.542528 0.517435
13 1 0.506841 0.561262 0.521431
33 1 0.532299 0.57125 0.523009
1 1 0.565678 0.536513 0.523181
15 1 0.54916 0.550572 0.504692
17 1 0.559548 0.565583 0.523544
36 1 0.578959 0.550677 0.500985
5 1 0.544995 0.547325 0.535855
24 1 0.587504 0.55415 0.527429
14 1 0.549854 0.576815 0.50147
16 1 0.553606 0.591272 0.526624
12 1 0.577024 0.578915 0.512677
23 1 0.563823 0.495743 0.547458
37 1 0.555287 0.497437 0.578276
43 1 0.499653 0.535457 0.553627
38 1 0.507092 0.510892 0.556835
44 1 0.526467 0.527277 0.562286
49 1 0.540048 0.505133 0.556005
39 1 0.575201 0.515679 0.566455
20 1 0.557521 0.525908 0.547901
22 1 0.550259 0.522767 0.57271
19 1 0.588011 0.504908 0.543733
47 1 0.583695 0.532418 0.541118
31 1 0.496337 0.561315 0.549089
27 1 0.520022 0.549722 0.546209
26 1 0.51122 0.554357 0.57515
51 1 0.525701 0.572727 0.563248
6 1 0.567584 0.543145 0.568478
28 1 0.546821 0.571577 0.545707
41 1 0.538972 0.550253 0.564572
53 1 0.568697 0.553933 0.545356
42 1 0.558027 0.567935 0.570159
52 1 0.511633 0.578891 0.538936
46 1 0.533357 0.593445 0.547375
34 1 0.538299 0.5911 0.572143
18 1 0.560278 0.592073 0.556086
54 1 0.578475 0.578537 0.542445
2 1 0.506206 0.522981 0.581552
45 1 0.528472 0.509174 0.581319
8 1 0.52882 0.535683 0.58779
48 1 0.546364 0.514989 0.598298
40 1 0.571327 0.521327 0.590943
32 1 0.53593 0.562799 0.587427
50 1 0.554079 0.542734 0.590635
ITEM: TIMESTEP
1500000
ITEM: NUMBER OF ATOMS
54
ITEM: BOX BOUNDS pp pp pp
-5.0000000000000000e+01 5.0000000000000000e+01
-5.0000000000000000e+01 5.0000000000000000e+01
-5.0000000000000000e+01 5.0000000000000000e+01
ITEM: ATOMS id type xs ys zs
3 1 0.498189 0.526171 0.51528
9 1 0.525134 0.535218 0.504225
21 1 0.523019 0.524087 0.5283
35 1 0.570324 0.523811 0.504319
10 1 0.546111 0.522001 0.516004
4 1 0.566654 0.508641 0.529558
1 1 0.563398 0.536059 0.526142
30 1 0.589318 0.525337 0.524174
25 1 0.482901 0.552016 0.526403
11 1 0.49905 0.548768 0.5009
7 1 0.525394 0.561141 0.500662
29 1 0.508543 0.548482 0.525981
5 1 0.537854 0.548249 0.526872
13 1 0.506163 0.57309 0.518225
33 1 0.53959 0.574292 0.519447
14 1 0.562155 0.57296 0.504167
15 1 0.551871 0.547607 0.504763
17 1 0.562175 0.560756 0.52679
36 1 0.579773 0.549255 0.509507
24 1 0.584438 0.548661 0.536469
12 1 0.586778 0.572735 0.523051
16 1 0.559906 0.590032 0.529448
43 1 0.495403 0.530751 0.542024
38 1 0.516591 0.514907 0.552844
44 1 0.534997 0.532529 0.566387
26 1 0.506941 0.534424 0.567094
45 1 0.538782 0.505974 0.568443
49 1 0.540778 0.50458 0.535619
23 1 0.561188 0.499787 0.554296
20 1 0.547331 0.52512 0.543946
22 1 0.560936 0.523709 0.566767
47 1 0.577013 0.526272 0.547053