LAMMPS (7 Feb 2024 - Update 1)
OMP_NUM_THREADS environment is not set. Defaulting to 1 thread. (src/comm.cpp:98)
  using 1 OpenMP thread(s) per MPI task
#============Initialization=================
units 			metal
atom_style 		atomic
boundary 		p p p

############################################
#              CLI Variables               #
############################################
variable 		seed index 200093          #
variable 		N index 8                  #
variable 		iter index 1000000         #
variable 		iterther index 100000      #
variable 		iexport index 1000         #
variable 		tempchauf index 4000       #
variable 		Tdamp index 0.001          #
variable 		timestep index 0.0001      #
############################################
############################################
#=========Simulation box definition=========
lattice 		sc 1.0
Lattice spacing in x,y,z = 1 1 1
region 			bigbox block 0 15 0 15 0 15
create_box 		1 bigbox
Created orthogonal box = (0 0 0) to (15 15 15)
  1 by 1 by 1 MPI processor grid

#==================Atoms====================
region 			safezone block 6 11 6 11 6 11 units box
create_atoms 	1 random ${N} ${seed} safezone
create_atoms 	1 random 8 ${seed} safezone
create_atoms 	1 random 8 200093 safezone
Created 8 atoms
  using lattice units in orthogonal box = (0 0 0) to (15 15 15)
  create_atoms CPU = 0.000 seconds
labelmap 		atom 1 C
mass 			* 12.01



#==========Velocity initialization==========
velocity 		all create 0.0000001 1563967 rot yes dist gaussian

#======Pair style for atom interactions=============
pair_style 		airebo 1.8 1 1
pair_coeff 		* * CH.airebo C
Reading airebo potential file CH.airebo with DATE: 2011-10-25

#==============Neighbor selection===================
neighbor 		0.3 bin
neigh_modify 	every 1 delay 0 check yes



#==============Custom Wall force====================
#==========Wall with harmonic potential=============
#variable       k equal 10.0

#fix             xlo_wall all wall/harmonic xlo EDGE v_k 1.0 0.7
#fix             xhi_wall all wall/harmonic xhi EDGE v_k 1.0 0.7
#fix             ylo_wall all wall/harmonic ylo EDGE v_k 1.0 0.7
#fix             yhi_wall all wall/harmonic yhi EDGE v_k 1.0 0.7
#fix             zlo_wall all wall/harmonic zlo EDGE v_k 1.0 0.7
#fix             zhi_wall all wall/harmonic zhi EDGE v_k 1.0 0.7



#=====================Timestep======================
timestep 		${timestep}
timestep 		0.0001

#===============Define dump command=================
dump 			1 all cfg 100000 ./dump/dump.tensile_*.cfg mass type xs ys zs vx vy vz id

#========System temperature printing info===========
thermo_style 	custom step temp etotal epair pe ke
thermo 			${iexport}	# 1'000'000
thermo 			1000	



#====================CRC Cycle======================

#=============Condensation et chauffe===============

# Minimize during the heating phase
#min_style       sd
#minimize        1.0e-5 1.0e-7 500 1000

fix 			1 all nve
fix 			2 all temp/berendsen 0.0 ${tempchauf} ${Tdamp}
fix 			2 all temp/berendsen 0.0 4000 ${Tdamp}
fix 			2 all temp/berendsen 0.0 4000 0.001
fix             3 all momentum 1 linear 1 1 1 angular rescale

run 			${iter}
run 			1000000
Neighbor list info ...
  update: every = 1 steps, delay = 0 steps, check = yes
  max neighbors/atom: 2000, page size: 100000
  master list distance cutoff = 8.116371
  ghost atom cutoff = 8.116371
  binsize = 4.0581855, bins = 4 4 4
  1 neighbor lists, perpetual/occasional/extra = 1 0 0
  (1) pair airebo, perpetual
      attributes: full, newton on, ghost
      pair build: full/bin/ghost
      stencil: full/ghost/bin/3d
      bin: standard
Per MPI rank memory allocation (min/avg/max) = 3.879 | 3.879 | 3.879 Mbytes
   Step          Temp          TotEng         E_pair         PotEng         KinEng    
         0   1e-07          90.540674      90.540674      90.540674      9.0482101e-11
      1000   16.285034     -18.472561     -18.487296     -18.487296      0.014735041  
      2000   9.2949712     -19.105191     -19.113601     -19.113601      0.0084102853 
      3000   11.087842     -19.100764     -19.110797     -19.110797      0.010032512  
      4000   15.140688     -19.108408     -19.122108     -19.122108      0.013699613  
      5000   19.072811     -19.102906     -19.120163     -19.120163      0.01725748   
      6000   23.335341     -25.235        -25.256114     -25.256114      0.021114307  
      7000   29.925295     -25.213275     -25.240352     -25.240352      0.027077036  
      8000   41.495145     -30.758804     -30.79635      -30.79635       0.037545679  
      9000   39.161208     -31.304247     -31.33968      -31.33968       0.035433884  
     10000   39.269299     -31.311189     -31.346721     -31.346721      0.035531687  
     11000   43.57458      -31.311875     -31.351303     -31.351303      0.039427195  
     12000   47.587265     -31.31253      -31.355588     -31.355588      0.043057958  
     13000   52.062383     -31.303529     -31.350636     -31.350636      0.047107138  
     14000   57.452024     -31.332746     -31.38473      -31.38473       0.051983799  
     15000   59.344187     -31.321759     -31.375455     -31.375455      0.053695868  
     16000   63.476675     -31.30642      -31.363855     -31.363855      0.057435029  
     17000   68.083494     -31.303704     -31.365307     -31.365307      0.061603376  
     18000   73.085049     -31.290125     -31.356254     -31.356254      0.066128888  
     19000   74.045921     -31.296019     -31.363018     -31.363018      0.066998305  
     20000   79.653817     -31.282879     -31.354951     -31.354951      0.072072447  
     21000   86.187622     -31.292246     -31.37023      -31.37023       0.077984371  
     22000   86.288206     -31.285844     -31.36392      -31.36392       0.078075382  
     23000   93.194889     -31.280881     -31.365206     -31.365206      0.084324694  
     24000   96.069498     -31.274195     -31.36112      -31.36112       0.086925701  
     25000   99.984803     -31.287231     -31.377699     -31.377699      0.090468351  
     26000   103.71967     -31.279409     -31.373257     -31.373257      0.093847741  
     27000   106.90689     -31.273047     -31.369779     -31.369779      0.096731598  
     28000   111.90185     -31.281866     -31.383117     -31.383117      0.10125114   
     29000   116.32219     -31.261748     -31.366998     -31.366998      0.10525077   
     30000   119.77912     -31.260999     -31.369378     -31.369378      0.10837867   
     31000   124.79388     -31.257269     -31.370185     -31.370185      0.11291612   
     32000   128.48968     -31.258418     -31.374678     -31.374678      0.11626016   
     33000   134.07235     -31.251722     -31.373033     -31.373033      0.12131148   
     34000   135.67249     -31.245704     -31.368463     -31.368463      0.12275932   
     35000   141.39928     -31.241712     -31.369653     -31.369653      0.12794104   
     36000   144.71035     -31.254188     -31.385125     -31.385125      0.13093697   
     37000   148.47601     -31.243116     -31.37746      -31.37746       0.13434421   
     38000   153.20926     -31.239285     -31.377912     -31.377912      0.13862696   
     39000   156.82507     -31.233754     -31.375653     -31.375653      0.14189862   
     40000   158.72463     -31.222943     -31.36656      -31.36656       0.14361738   
     41000   164.4675      -31.215075     -31.363888     -31.363888      0.14881365   
     42000   166.91351     -31.209057     -31.360084     -31.360084      0.15102685   
     43000   172.95906     -31.207284     -31.363781     -31.363781      0.15649699   
     44000   176.3693      -31.202821     -31.362404     -31.362404      0.15958265   
     45000   180.60279     -31.199262     -31.362675     -31.362675      0.1634132    
     46000   183.51395     -31.204086     -31.370134     -31.370134      0.16604728   
     47000   187.37192     -31.20774      -31.377278     -31.377278      0.16953805   
     48000   191.71514     -31.201421     -31.374889     -31.374889      0.17346789   
     49000   194.93287     -31.193447     -31.369826     -31.369826      0.17637936   
     50000   199.57531     -31.182378     -31.362958     -31.362958      0.18057993   
     51000   204.82361     -31.172916     -31.358245     -31.358245      0.1853287    
     52000   207.01168     -31.17237      -31.359679     -31.359679      0.18730852   
     53000   212.22397     -31.165987     -31.358012     -31.358012      0.19202471   
     54000   216.21658     -31.16973      -31.365367     -31.365367      0.1956373    
     55000   219.03941     -31.161026     -31.359218     -31.359218      0.19819146   
     56000   223.88069     -31.156478     -31.35905      -31.35905       0.20257196   
     57000   228.32972     -31.165796     -31.372394     -31.372394      0.20659753   
     58000   231.81562     -31.161226     -31.370977     -31.370977      0.20975165   
     59000   237.23398     -31.164711     -31.379365     -31.379365      0.21465429   
     60000   240.51401     -31.15392      -31.371542     -31.371542      0.21762213   
     61000   244.55275     -31.149781     -31.371057     -31.371057      0.22127647   
     62000   248.02131     -31.148649     -31.373064     -31.373064      0.22441489   
     63000   251.72587     -31.146255     -31.374022     -31.374022      0.22776686   
     64000   254.91058     -31.14074      -31.371388     -31.371388      0.23064845   
     65000   259.43158     -31.13593      -31.370669     -31.370669      0.23473915   
     66000   263.02794     -31.127947     -31.36594      -31.36594       0.23799321   
     67000   267.85085     -31.115697     -31.358054     -31.358054      0.24235708   
     68000   271.92359     -31.117793     -31.363836     -31.363836      0.24604218   
     69000   275.53518     -31.113863     -31.363173     -31.363173      0.24931002   
     70000   280.2024      -31.104908     -31.358441     -31.358441      0.25353302   
     71000   284.05441     -31.098788     -31.355807     -31.355807      0.2570184    
     72000   287.87384     -31.093686     -31.35416      -31.35416       0.2604743    
     73000   292.87146     -31.098644     -31.363641     -31.363641      0.26499625   
     74000   294.33569     -31.098808     -31.365129     -31.365129      0.26632112   
     75000   300.45054     -31.08497      -31.356824     -31.356824      0.27185396   
     76000   304.55733     -31.081395     -31.356965     -31.356965      0.27556988   
     77000   308.04302     -31.089325     -31.368048     -31.368048      0.2787238    
     78000   311.86232     -31.08018      -31.362359     -31.362359      0.28217958   
     79000   315.6808      -31.072447     -31.358082     -31.358082      0.28563462   
     80000   320.22918     -31.068624     -31.358374     -31.358374      0.28975009   
     81000   324.31842     -31.068635     -31.362085     -31.362085      0.29345012   
     82000   328.61978     -31.067976     -31.365318     -31.365318      0.29734208   
     83000   331.6735      -31.069077     -31.369183     -31.369183      0.30010515   
     84000   335.67868     -31.059721     -31.36345      -31.36345       0.30372913   
     85000   378.94283     -35.498672     -35.841547     -35.841547      0.34287544   
     86000   345.48235     -36.435554     -36.748154     -36.748154      0.31259969   
     87000   345.82394     -36.997797     -37.310706     -37.310706      0.31290877   
     88000   348.24179     -36.780174     -37.095271     -37.095271      0.31509649   
     89000   348.16031     -36.173814     -36.488836     -36.488836      0.31502277   
     90000   374.25982     -36.887267     -37.225905     -37.225905      0.33863815   
     91000   372.03268     -36.830658     -37.167281     -37.167281      0.33662298   
     92000   363.31369     -36.362758     -36.691491     -36.691491      0.32873386   
     93000   364.28089     -35.934293     -36.263902     -36.263902      0.329609     
     94000   370.04069     -36.555238     -36.890058     -36.890058      0.33482059   
     95000   377.63088     -36.980518     -37.322206     -37.322206      0.34168836   
     96000   363.62786     -36.581972     -36.91099      -36.91099       0.32901813   
     97000   398.94274     -36.383171     -36.744143     -36.744143      0.36097177   
     98000   395.791       -36.906149     -37.264269     -37.264269      0.35812001   
     99000   408.998       -36.543114     -36.913184     -36.913184      0.37006998   
    100000   432.49616     -36.158682     -36.550014     -36.550014      0.39133162   
    101000   407.40214     -36.41689      -36.785516     -36.785516      0.36862601   
    102000   408.46124     -36.94447      -37.314055     -37.314055      0.36958431   
    103000   396.73954     -36.51851      -36.877489     -36.877489      0.35897827   
    104000   424.82035     -36.268244     -36.65263      -36.65263       0.38438638   
    105000   410.13516     -36.800213     -37.171312     -37.171312      0.37109891   
    106000   402.4718      -36.852697     -37.216862     -37.216862      0.36416494   
    107000   421.28015     -36.333282     -36.714465     -36.714465      0.38118314   
    108000   430.48781     -36.52372      -36.913234     -36.913234      0.38951442   
    109000   433.19386     -36.868576     -37.260539     -37.260539      0.39196291   
    110000   451.34019     -36.735003     -37.143385     -37.143385      0.40838209   
    111000   450.43775     -36.601564     -37.009129     -37.009129      0.40756554   
    112000   454.18256     -36.629852     -37.040806     -37.040806      0.41095393   
    113000   473.57049     -36.423665     -36.852162     -36.852162      0.42849653   
    114000   461.69241     -36.802275     -37.220024     -37.220024      0.41774899   
    115000   444.90951     -36.539442     -36.942005     -36.942005      0.40256347   
    116000   452.94315     -36.583121     -36.992953     -36.992953      0.40983248   
    117000   464.24292     -36.827202     -37.247259     -37.247259      0.42005675   
    118000   464.03279     -36.563869     -36.983736     -36.983736      0.41986662   
    119000   447.66617     -36.770964     -37.176022     -37.176022      0.40505776   
    120000   495.03361     -36.507634     -36.955551     -36.955551      0.44791681   
    121000   480.63023     -36.864047     -37.298931     -37.298931      0.43488433   
    122000   486.51551     -36.674368     -37.114578     -37.114578      0.44020946   
    123000   471.13741     -36.694942     -37.121237     -37.121237      0.42629503   
    124000   499.62372     -36.757291     -37.209361     -37.209361      0.45207005   
    125000   515.31047     -36.497246     -36.963509     -36.963509      0.46626374   
    126000   512.98711     -36.718553     -37.182715     -37.182715      0.46416152   
    127000   517.65365     -36.742759     -37.211143     -37.211143      0.4683839    
    128000   512.35285     -36.843548     -37.307136     -37.307136      0.46358762   
    129000   497.91537     -36.69293      -37.143455     -37.143455      0.45052429   
    130000   537.20809     -36.755383     -37.24146      -37.24146       0.48607717   
    131000   529.40648     -36.716584     -37.195603     -37.195603      0.47901811   
    132000   515.62885     -36.745206     -37.211757     -37.211757      0.46655182   
    133000   528.0811      -36.804385     -37.282204     -37.282204      0.47781888   
    134000   540.40968     -36.557157     -37.046131     -37.046131      0.48897404   
    135000   544.07715     -36.773567     -37.265859     -37.265859      0.49229243   
    136000   543.02493     -36.671454     -37.162794     -37.162794      0.49134037   
    137000   523.5537      -36.6821       -37.155822     -37.155822      0.47372239   
    138000   556.74705     -36.726298     -37.230055     -37.230055      0.50375643   
    139000   561.87661     -36.827242     -37.335639     -37.335639      0.50839776   
    140000   561.06398     -36.618809     -37.126472     -37.126472      0.50766248   
    141000   563.93176     -36.81142      -37.321677     -37.321677      0.51025731   
    142000   570.17255     -36.70233      -37.218234     -37.218234      0.5159041    
    143000   574.49272     -36.765707     -37.28552      -37.28552       0.51981309   
    144000   586.07266     -36.684275     -37.214566     -37.214566      0.53029086   
    145000   583.16042     -36.812723     -37.340379     -37.340379      0.5276558    
    146000   587.66237     -36.660577     -37.192307     -37.192307      0.53172927   
    147000   591.05337     -36.808548     -37.343346     -37.343346      0.53479751   
    148000   585.36366     -36.651464     -37.181113     -37.181113      0.52964934   
    149000   599.33447     -36.832765     -37.375056     -37.375056      0.54229042   
    150000   595.90226     -36.695722     -37.234907     -37.234907      0.53918489   
    151000   611.30374     -36.805295     -37.358415     -37.358415      0.55312047   
    152000   608.4572      -36.7587       -37.309245     -37.309245      0.55054486   
    153000   614.59752     -36.693793     -37.249894     -37.249894      0.55610075   
    154000   609.97035     -36.778131     -37.330045     -37.330045      0.55191399   
    155000   629.95571     -36.765728     -37.335725     -37.335725      0.56999717   
    156000   621.84111     -36.740528     -37.303183     -37.303183      0.5626549    
    157000   633.62949     -36.693456     -37.266778     -37.266778      0.57332128   
    158000   621.83528     -36.784574     -37.347223     -37.347223      0.56264963   
    159000   638.86353     -36.694963     -37.27302      -37.27302       0.57805715   
    160000   639.26653     -36.737837     -37.316259     -37.316259      0.57842179   
    161000   644.07912     -36.694273     -37.27705      -37.27705       0.58277633   
    162000   640.0683      -36.740909     -37.320056     -37.320056      0.57914725   
    163000   661.68188     -36.760511     -37.359215     -37.359215      0.59870367   
    164000   654.09756     -36.725037     -37.316878     -37.316878      0.59184122   
    165000   660.26665     -36.795238     -37.392661     -37.392661      0.59742314   
    166000   673.03356     -36.700472     -37.309447     -37.309447      0.60897491   
    167000   659.54176     -36.750505     -37.347273     -37.347273      0.59676724   
    168000   676.72474     -36.763318     -37.375633     -37.375633      0.61231477   
    169000   784.98105     -39.100452     -39.810719     -39.810719      0.71026735   
    170000   651.27662     -39.483579     -40.072868     -40.072868      0.58928877   
    171000   653.93139     -39.094847     -39.686537     -39.686537      0.59169087   
    172000   653.77648     -39.297246     -39.888797     -39.888797      0.5915507    
    173000   728.61072     -38.81437      -39.473633     -39.473633      0.65926229   
    174000   693.52506     -39.133933     -39.761449     -39.761449      0.62751605   
    175000   709.44669     -39.410252     -40.052174     -40.052174      0.64192227   
    176000   730.42064     -39.004417     -39.665317     -39.665317      0.66089995   
    177000   734.08481     -38.612886     -39.277102     -39.277102      0.66421536   
    178000   745.92196     -38.822182     -39.497108     -39.497108      0.67492586   
    179000   709.52926     -39.290061     -39.932058     -39.932058      0.64199698   
    180000   718.0769      -39.616013     -40.265744     -40.265744      0.64973107   
    181000   667.48191     -39.244687     -39.848639     -39.848639      0.60395166   
    182000   697.22671     -39.325071     -39.955936     -39.955936      0.63086538   
    183000   734.73054     -39.237021     -39.90182      -39.90182       0.66479963   
    184000   761.88893     -39.492356     -40.181729     -40.181729      0.68937312   
    185000   731.83244     -39.263115     -39.925293     -39.925293      0.66217737   
    186000   687.83426     -38.738807     -39.361174     -39.361174      0.62236689   
    187000   724.85883     -38.585736     -39.241604     -39.241604      0.6558675    
    188000   753.99949     -39.317447     -39.999682     -39.999682      0.68223458   
    189000   758.70461     -39.535737     -40.222229     -40.222229      0.68649187   
    190000   739.57603     -39.487123     -40.156306     -40.156306      0.66918394   
    191000   827.82283     -39.173586     -39.922618     -39.922618      0.74903149   
    192000   746.37593     -39.360403     -40.035739     -40.035739      0.67533662   
    193000   741.40477     -39.070933     -39.741772     -39.741772      0.67083862   
    194000   748.70087     -39.162372     -39.839812     -39.839812      0.67744028   
    195000   841.0825      -39.117912     -39.878941     -39.878941      0.76102912   
    196000   722.87438     -38.519982     -39.174054     -39.174054      0.65407193   
    197000   794.38392     -38.975829     -39.694605     -39.694605      0.71877527   
    198000   757.58647     -39.173271     -39.858751     -39.858751      0.68548016   
    199000   747.08761     -38.932086     -39.608067     -39.608067      0.67598057   
    200000   852.25626     -39.232199     -40.003339     -40.003339      0.77113938   
    201000   756.98109     -39.269617     -39.95455      -39.95455       0.6849324    
    202000   841.62984     -38.7897       -39.551224     -39.551224      0.76152437   
    203000   786.88849     -39.201953     -39.913946     -39.913946      0.71199324   
    204000   847.98735     -39.254639     -40.021916     -40.021916      0.76727678   
    205000   761.90975     -38.931588     -39.62098      -39.62098       0.68939195   
    206000   842.25218     -38.675631     -39.437719     -39.437719      0.76208747   
    207000   874.77127     -38.899605     -39.691116     -39.691116      0.79151143   
    208000   813.16115     -38.886133     -39.621898     -39.621898      0.7357653    
    209000   799.70844     -38.92827      -39.651863     -39.651863      0.723593     
    210000   864.86869     -38.759029     -39.541581     -39.541581      0.78255136   
    211000   833.41183     -38.443294     -39.197383     -39.197383      0.75408854   
    212000   854.94961     -38.970699     -39.744275     -39.744275      0.77357638   
    213000   842.90144     -39.153174     -39.915848     -39.915848      0.76267493   
    214000   885.41304     -38.99361      -39.79475      -39.79475       0.80114033   
    215000   804.76369     -39.268833     -39.997        -39.997         0.7281671    
    216000   834.17721     -39.157672     -39.912453     -39.912453      0.75478107   
    217000   940.40266     -38.894406     -39.745302     -39.745302      0.85089609   
    218000   839.86764     -38.188156     -38.948086     -38.948086      0.75992989   
    219000   862.64618     -38.82533      -39.60587      -39.60587       0.78054039   
    220000   869.09298     -39.03173      -39.818103     -39.818103      0.7863736    
    221000   860.85245     -39.475451     -40.254368     -40.254368      0.77891739   
    222000   891.46545     -39.186506     -39.993122     -39.993122      0.80661667   
    223000   825.50814     -39.355233     -40.10217      -40.10217       0.74693711   
    224000   886.41325     -39.147167     -39.949212     -39.949212      0.80204534   
    225000   885.07502     -39.43076      -40.231595     -40.231595      0.80083448   
    226000   889.76682     -38.795585     -39.600665     -39.600665      0.80507972   
    227000   997.32585     -38.579114     -39.481515     -39.481515      0.90240139   
    228000   908.48415     -38.73994      -39.561955     -39.561955      0.82201555   
    229000   907.3868      -38.875197     -39.69622      -39.69622       0.82102265   
    230000   918.94273     -38.926783     -39.758261     -39.758261      0.83147869   
    231000   899.46936     -38.541453     -39.355312     -39.355312      0.81385878   
    232000   894.73008     -38.791551     -39.601122     -39.601122      0.80957058   
    233000   963.30568     -39.08194      -39.953559     -39.953559      0.87161922   
    234000   1020.3496     -38.887869     -39.811103     -39.811103      0.92323373   
    235000   928.18999     -39.054696     -39.894542     -39.894542      0.83984581   
    236000   913.91518     -38.902477     -39.729407     -39.729407      0.82692966   
    237000   968.21386     -38.903267     -39.779327     -39.779327      0.87606024   
    238000   1016.5163     -38.614722     -39.534487     -39.534487      0.91976529   
    239000   913.53346     -39.069829     -39.896414     -39.896414      0.82658427   
    240000   935.15243     -38.21794      -39.064086     -39.064086      0.84614557   
    241000   1017.0883     -38.829763     -39.750046     -39.750046      0.92028285   
    242000   1005.7719     -39.210747     -40.120791     -40.120791      0.91004358   
    243000   1013.7808     -39.259265     -40.176555     -40.176555      0.91729018   
    244000   1001.5258     -39.035621     -39.941823     -39.941823      0.90620158   
    245000   927.18333     -38.722797     -39.561732     -39.561732      0.83893496   
    246000   983.09594     -38.981496     -39.871021     -39.871021      0.88952587   
    247000   1018.6504     -39.197812     -40.119508     -40.119508      0.92169627   
    248000   1008.1443     -38.740598     -39.652788     -39.652788      0.91219013   
    249000   991.33491     -38.4909       -39.387881     -39.387881      0.89698066   
    250000   993.97198     -38.653216     -39.552583     -39.552583      0.89936674   
    251000   979.32071     -39.249525     -40.135635     -40.135635      0.88610996   
    252000   996.95803     -38.879404     -39.781473     -39.781473      0.90206857   
    253000   991.50275     -38.6339       -39.531032     -39.531032      0.89713252   
    254000   1111.9235     -38.389891     -39.395983     -39.395983      1.0060918    
    255000   1030.6484     -38.923631     -39.856183     -39.856183      0.93255236   
    256000   1045.4372     -38.901234     -39.847168     -39.847168      0.94593353   
    257000   1004.8964     -38.935372     -39.844623     -39.844623      0.90925134   
    258000   1043.8265     -38.671954     -39.61643      -39.61643       0.94447617   
    259000   1014.5182     -38.960562     -39.878519     -39.878519      0.9179574    
    260000   997.79345     -38.679663     -39.582488     -39.582488      0.90282448   
    261000   971.68464     -38.696128     -39.575329     -39.575329      0.87920068   
    262000   1024.4099     -38.628271     -39.555178     -39.555178      0.92690764   
    263000   1024.7821     -38.781815     -39.70906      -39.70906       0.92724438   
    264000   1061.6783     -38.032425     -38.993054     -38.993054      0.96062882   
    265000   1056.0151     -38.442871     -39.398376     -39.398376      0.95550462   
    266000   1005.585      -38.139617     -39.049492     -39.049492      0.90987448   
    267000   1013.6301     -38.910732     -39.827886     -39.827886      0.91715386   
    268000   1027.3234     -38.556166     -39.48571      -39.48571       0.92954379   
    269000   1068.3812     -38.661058     -39.627752     -39.627752      0.96669374   
    270000   1065.2103     -38.336675     -39.300499     -39.300499      0.96382463   
    271000   1094.2623     -38.915278     -39.905389     -39.905389      0.99011152   
    272000   1130.0082     -38.389531     -39.411986     -39.411986      1.0224551    
    273000   1058.1771     -38.088972     -39.046433     -39.046433      0.95746084   
    274000   1053.983      -38.865734     -39.8194       -39.8194        0.953666     
    275000   1082.6713     -38.63225      -39.611873     -39.611873      0.97962371   
    276000   1043.9127     -37.642417     -38.586971     -38.586971      0.94455419   
    277000   1175.4892     -38.582961     -39.646569     -39.646569      1.0636073    
    278000   1086.4486     -38.23351      -39.216551     -39.216551      0.98304154   
    279000   1152.8228     -38.338759     -39.381857     -39.381857      1.0430983    
    280000   1129.8281     -38.421557     -39.443849     -39.443849      1.0222922    
    281000   1129.328      -38.732266     -39.754106     -39.754106      1.0218397    
    282000   1104.9232     -38.569874     -39.569632     -39.569632      0.99975772   
    283000   1044.2041     -38.646565     -39.591382     -39.591382      0.94481785   
    284000   1209.4088     -37.71811      -38.812408     -38.812408      1.0942985    
    285000   1169.4275     -38.550211     -39.608334     -39.608334      1.0581226    
    286000   1124.9319     -38.100427     -39.118289     -39.118289      1.017862     
    287000   1122.5366     -38.259385     -39.27508      -39.27508       1.0156947    
    288000   1089.7875     -38.61021      -39.596272     -39.596272      0.98606259   
    289000   1204.4424     -38.783869     -39.873674     -39.873674      1.0898048    
    290000   1240.4662     -38.352133     -39.474533     -39.474533      1.1223999    
    291000   1123.6345     -38.439264     -39.455952     -39.455952      1.0166881    
    292000   1145.8078     -38.485863     -39.522614     -39.522614      1.036751     
    293000   1146.1715     -38.823886     -39.860966     -39.860966      1.0370801    
    294000   1123.9745     -38.434467     -39.451463     -39.451463      1.0169958    
    295000   1154.9057     -38.824312     -39.869295     -39.869295      1.0449829    
    296000   1228.7648     -39.043295     -40.155107     -40.155107      1.1118122    
    297000   1128.0741     -38.691708     -39.712413     -39.712413      1.0207052    
    298000   1230.3406     -38.117313     -39.230551     -39.230551      1.1132381    
    299000   1225.4878     -38.799397     -39.908244     -39.908244      1.1088471    
    300000   1184.6579     -38.630589     -39.702492     -39.702492      1.0719034    
    301000   1224.3084     -38.406931     -39.514711     -39.514711      1.10778      
    302000   1129.2607     -38.869143     -39.890922     -39.890922      1.0217788    
    303000   1190.6614     -38.713792     -39.791127     -39.791127      1.0773355    
    304000   1246.1296     -38.181209     -39.308733     -39.308733      1.1275242    
    305000   1283.3016     -38.821585     -39.982744     -39.982744      1.1611583    
    306000   1160.969      -38.468502     -39.518971     -39.518971      1.0504692    
    307000   1177.4051     -38.613444     -39.678784     -39.678784      1.0653409    
    308000   1220.5788     -38.659185     -39.763591     -39.763591      1.1044054    
    309000   1292.0178     -38.565397     -39.734442     -39.734442      1.1690448    
    310000   1193.8359     -38.194275     -39.274483     -39.274483      1.0802078    
    311000   1304.2933     -38.14553      -39.325682     -39.325682      1.180152     
    312000   1163.6769     -38.217456     -39.270376     -39.270376      1.0529193    
    313000   1185.1401     -38.027622     -39.099962     -39.099962      1.0723397    
    314000   1200.9274     -37.700268     -38.786892     -38.786892      1.0866244    
    315000   1320.5382     -37.834021     -39.028872     -39.028872      1.1948508    
    316000   1291.2201     -38.680969     -39.849292     -39.849292      1.1683231    
    317000   1261.1228     -37.759081     -38.900171     -38.900171      1.1410904    
    318000   1287.7732     -38.478862     -39.644066     -39.644066      1.1652043    
    319000   1267.0108     -38.305853     -39.452271     -39.452271      1.146418     
    320000   1226.4856     -38.339469     -39.449219     -39.449219      1.1097499    
    321000   1266.201      -38.423628     -39.569314     -39.569314      1.1456853    
    322000   1291.0478     -38.3024       -39.470567     -39.470567      1.1681672    
    323000   1316.9896     -38.444211     -39.635851     -39.635851      1.1916398    
    324000   1310.8276     -38.304197     -39.490261     -39.490261      1.1860643    
    325000   1356.4451     -38.709131     -39.936471     -39.936471      1.22734      
    326000   1262.3757     -38.356874     -39.499099     -39.499099      1.142224     
    327000   1275.5247     -38.446961     -39.601082     -39.601082      1.1541215    
    328000   1251.3919     -38.006281     -39.138567     -39.138567      1.1322857    
    329000   1312.4652     -38.649166     -39.836712     -39.836712      1.1875461    
    330000   1318.2663     -38.424027     -39.616823     -39.616823      1.192795     
    331000   1308.8729     -38.2271       -39.411396     -39.411396      1.1842957    
    332000   1333.9205     -38.696653     -39.903612     -39.903612      1.2069593    
    333000   1346.4806     -38.370505     -39.588829     -39.588829      1.2183239    
    334000   1405.4302     -37.227269     -38.498932     -38.498932      1.2716628    
    335000   1285.6969     -38.01648      -39.179805     -39.179805      1.1633255    
    336000   1331.6269     -37.990225     -39.195109     -39.195109      1.204884     
    337000   1362.0489     -38.650774     -39.883185     -39.883185      1.2324105    
    338000   1336.5669     -37.929899     -39.139253     -39.139253      1.2093538    
    339000   1450.4412     -38.032656     -39.345045     -39.345045      1.3123896    
    340000   1311.6221     -38.275451     -39.462235     -39.462235      1.1867833    
    341000   1319.5829     -37.767358     -38.961345     -38.961345      1.1939864    
    342000   1347.0604     -38.703167     -39.922016     -39.922016      1.2188486    
    343000   1388.1313     -37.830687     -39.086698     -39.086698      1.2560104    
    344000   1399.9818     -38.274976     -39.541709     -39.541709      1.2667329    
    345000   1338.0881     -38.826129     -40.036859     -40.036859      1.2107303    
    346000   1425.3216     -38.447694     -39.737355     -39.737355      1.2896609    
    347000   1335.2902     -37.992035     -39.200234     -39.200234      1.2081987    
    348000   1343.3676     -38.451941     -39.667448     -39.667448      1.2155073    
    349000   1437.0683     -38.399703     -39.699992     -39.699992      1.3002896    
    350000   1367.5522     -38.422499     -39.659889     -39.659889      1.23739      
    351000   1451.0541     -37.886197     -39.199142     -39.199142      1.3129443    
    352000   1478.6394     -38.335731     -39.673635     -39.673635      1.337904     
    353000   1380.6122     -38.846415     -40.095622     -40.095622      1.2492069    
    354000   1423.2226     -38.02682      -39.314582     -39.314582      1.2877617    
    355000   1449.8259     -38.122547     -39.43438      -39.43438       1.311833     
    356000   1414.8686     -38.706646     -39.986849     -39.986849      1.2802028    
    357000   1433.5418     -37.760598     -39.057696     -39.057696      1.2970988    
    358000   1415.5799     -37.587445     -38.868291     -38.868291      1.2808464    
    359000   1448.4088     -38.276007     -39.586558     -39.586558      1.3105507    
    360000   1425.8656     -37.957789     -39.247942     -39.247942      1.2901532    
    361000   1342.6422     -38.392567     -39.607417     -39.607417      1.2148508    
    362000   1483.6139     -37.606864     -38.949269     -38.949269      1.342405     
    363000   1383.9608     -37.596994     -38.849231     -38.849231      1.2522368    
    364000   1418.3533     -38.839623     -40.122979     -40.122979      1.2833559    
    365000   1596.7867     -38.167796     -39.612602     -39.612602      1.4448062    
    366000   1413.3433     -38.61789      -39.896713     -39.896713      1.2788228    
    367000   1453.1066     -37.832515     -39.147317     -39.147317      1.3148014    
    368000   1517.7273     -37.885903     -39.259174     -39.259174      1.3732715    
    369000   1479.2289     -38.260615     -39.599053     -39.599053      1.3384374    
    370000   1517.3517     -38.123496     -39.496428     -39.496428      1.3729317    
    371000   1530.2364     -38.377491     -39.762081     -39.762081      1.3845901    
    372000   1547.5972     -38.156031     -39.55633      -39.55633       1.4002985    
    373000   1459.9456     -36.960659     -38.281649     -38.281649      1.3209895    
    374000   1459.3507     -37.661958     -38.982409     -38.982409      1.3204512    
    375000   1465.498      -37.978737     -39.304751     -39.304751      1.3260134    
    376000   1456.5512     -38.153138     -39.471056     -39.471056      1.3179181    
    377000   1390.8156     -38.05525      -39.313689     -39.313689      1.2584392    
    378000   1509.7547     -38.075615     -39.441672     -39.441672      1.3660578    
    379000   1560.783      -37.901888     -39.314117     -39.314117      1.4122292    
    380000   1497.0426     -37.492719     -38.847274     -38.847274      1.3545556    
    381000   1493.6833     -37.862787     -39.214303     -39.214303      1.3515161    
    382000   1485.967      -38.209045     -39.55358      -39.55358       1.3445341    
    383000   1578.6851     -38.277345     -39.705773     -39.705773      1.4284275    
    384000   1531.5649     -38.200308     -39.5861       -39.5861        1.3857921    
    385000   1497.0656     -37.889707     -39.244284     -39.244284      1.3545764    
    386000   1523.0946     -37.255443     -38.633571     -38.633571      1.378128     
    387000   1476.9181     -37.464929     -38.801276     -38.801276      1.3363465    
    388000   1591.2665     -37.507411     -38.947222     -38.947222      1.4398113    
    389000   1565.1488     -37.827544     -39.243724     -39.243724      1.4161795    
    390000   1538.4009     -38.066038     -39.458015     -39.458015      1.3919775    
    391000   1633.4833     -37.843005     -39.321015     -39.321015      1.4780101    
    392000   1624.7837     -37.564025     -39.034163     -39.034163      1.4701384    
    393000   1739.1341     -38.662869     -40.236474     -40.236474      1.5736051    
    394000   1654.8393     -40.564412     -42.061745     -42.061745      1.4973334    
    395000   1487.0609     -39.67444      -41.019964     -41.019964      1.345524     
    396000   1578.0706     -40.261134     -41.689005     -41.689005      1.4278715    
    397000   1546.0063     -38.682956     -40.081815     -40.081815      1.398859     
    398000   1638.0096     -40.00308      -41.485185     -41.485185      1.4821055    
    399000   1531.8312     -40.13972      -41.525753     -41.525753      1.386033     
    400000   1532.8483     -40.330527     -41.71748      -41.71748       1.3869533    
    401000   1645.6903     -40.181405     -41.67046      -41.67046       1.4890552    
    402000   1671.68       -40.148405     -41.660976     -41.660976      1.5125712    
    403000   1700.9969     -40.755626     -42.294724     -42.294724      1.5390977    
    404000   1556.1783     -41.049997     -42.45806      -42.45806       1.4080628    
    405000   1642.6734     -40.51246      -41.998785     -41.998785      1.4863254    
    406000   1585.5306     -40.65553      -42.090152     -42.090152      1.4346214    
    407000   1641.4915     -40.708828     -42.194084     -42.194084      1.485256     
    408000   1644.4059     -40.309596     -41.797489     -41.797489      1.487893     
    409000   1550.6014     -40.215726     -41.618743     -41.618743      1.4030168    
    410000   1590.5149     -39.998832     -41.437963     -41.437963      1.4391313    
    411000   1557.7123     -40.266144     -41.675595     -41.675595      1.4094508    
    412000   1669.3399     -40.384058     -41.894512     -41.894512      1.5104539    
    413000   1628.9861     -40.244551     -41.718492     -41.718492      1.4739408    
    414000   1678.5032     -40.858783     -42.377528     -42.377528      1.5187449    
    415000   1714.1561     -39.5252       -41.076204     -41.076204      1.5510044    
    416000   1569.343      -39.769024     -41.188999     -41.188999      1.4199746    
    417000   1757.9719     -40.82497      -42.415619     -42.415619      1.5906499    
    418000   1667.5046     -40.184793     -41.693587     -41.693587      1.5087932    
    419000   1552.1296     -39.999093     -41.403492     -41.403492      1.4043995    
    420000   1700.2801     -40.826021     -42.364471     -42.364471      1.5384492    
    421000   1806.3168     -40.442545     -42.076939     -42.076939      1.6343934    
    422000   1752.9457     -40.458147     -42.044249     -42.044249      1.5861021    
    423000   1618.9796     -40.366953     -41.83184      -41.83184       1.4648867    
    424000   1734.2582     -39.461303     -41.030497     -41.030497      1.5691933    
    425000   1682.4122     -40.442244     -41.964526     -41.964526      1.5222819    
    426000   1772.2657     -40.435586     -42.039169     -42.039169      1.6035832    
    427000   1751.3275     -40.400917     -41.985555     -41.985555      1.584638     
    428000   1825.5436     -39.574077     -41.225867     -41.225867      1.6517902    
    429000   1775.128      -39.83357      -41.439743     -41.439743      1.6061732    
    430000   1765.6606     -40.01605      -41.613657     -41.613657      1.5976068    
    431000   1723.8595     -39.784147     -41.343931     -41.343931      1.5597843    
    432000   1697.3481     -40.981159     -42.516956     -42.516956      1.5357962    
    433000   1700.8832     -39.812074     -41.351069     -41.351069      1.5389949    
    434000   1766.4141     -40.550315     -42.148603     -42.148603      1.5982886    
    435000   1675.6771     -40.42619      -41.942377     -41.942377      1.5161878    
    436000   1750.3611     -40.638006     -42.22177      -42.22177       1.5837635    
    437000   1739.2594     -40.42374      -41.997458     -41.997458      1.5737184    
    438000   1760.1537     -40.255023     -41.847647     -41.847647      1.592624     
    439000   1813.1061     -39.437071     -41.077608     -41.077608      1.6405365    
    440000   1778.9764     -40.068832     -41.678487     -41.678487      1.6096552    
    441000   1760.9667     -40.988688     -42.582048     -42.582048      1.5933597    
    442000   1865.1933     -40.285006     -41.972672     -41.972672      1.6876661    
    443000   1867.4757     -40.440982     -42.130713     -42.130713      1.6897313    
    444000   1772.4461     -40.326009     -41.929755     -41.929755      1.6037465    
    445000   1847.808      -40.808912     -42.480848     -42.480848      1.6719355    
    446000   1796.3999     -39.44457      -41.06999      -41.06999       1.6254204    
    447000   1770.8083     -39.055647     -40.657912     -40.657912      1.6022646    
    448000   1696.3632     -40.191385     -41.72629      -41.72629       1.534905     
    449000   1797.9559     -39.679293     -41.306121     -41.306121      1.6268282    
    450000   1752.8782     -39.483749     -41.06979      -41.06979       1.5860411    
    451000   1840.738      -40.253506     -41.919044     -41.919044      1.6655384    
    452000   1783.3944     -40.231395     -41.845047     -41.845047      1.6136527    
    453000   1795.6115     -40.599396     -42.224103     -42.224103      1.624707     
    454000   1785.8815     -40.93981      -42.555713     -42.555713      1.6159031    
    455000   1828.0216     -41.177343     -42.831375     -42.831375      1.6540324    
    456000   1838.1171     -40.484423     -42.14759      -42.14759       1.663167     
    457000   1914.4563     -39.818002     -41.550242     -41.550242      1.7322403    
    458000   1709.47       -39.874305     -41.421069     -41.421069      1.5467643    
    459000   1924.4933     -39.973077     -41.714399     -41.714399      1.741322     
    460000   1753.8695     -39.521113     -41.108051     -41.108051      1.586938     
    461000   1803.3183     -40.593806     -42.225486     -42.225486      1.6316803    
    462000   1782.972      -39.048796     -40.662066     -40.662066      1.6132706    
    463000   1846.8441     -40.12459      -41.795653     -41.795653      1.6710634    
    464000   1886.2208     -39.4045       -41.111192     -41.111192      1.7066922    
    465000   1829.8129     -40.605523     -42.261177     -42.261177      1.6556532    
    466000   1961.6788     -39.015062     -40.79003      -40.79003       1.7749682    
    467000   2020.5879     -40.033756     -41.862026     -41.862026      1.8282704    
    468000   1817.097      -40.179198     -41.823345     -41.823345      1.6441475    
    469000   1869.1537     -40.240811     -41.932061     -41.932061      1.6912495    
    470000   1826.4135     -39.823407     -41.475985     -41.475985      1.6525773    
    471000   1862.0313     -40.15814      -41.842945     -41.842945      1.6848051    
    472000   1896.7762     -40.659893     -42.376136     -42.376136      1.7162429    
    473000   1924.2568     -39.365763     -41.106871     -41.106871      1.741108     
    474000   1917.9506     -40.75231      -42.487712     -42.487712      1.735402     
    475000   1965.9877     -40.319631     -42.098498     -42.098498      1.778867     
    476000   1870.1608     -39.301231     -40.993392     -40.993392      1.6921608    
    477000   1957.4644     -39.670704     -41.441859     -41.441859      1.7711549    
    478000   1846.9211     -40.066502     -41.737635     -41.737635      1.671133     
    479000   2075.2336     -40.189688     -42.067403     -42.067403      1.877715     
    480000   1773.377      -39.043551     -40.648139     -40.648139      1.6045888    
    481000   2040.2468     -40.035183     -41.881241     -41.881241      1.8460582    
    482000   2089.5577     -40.048872     -41.939548     -41.939548      1.8906757    
    483000   1987.4141     -38.720959     -40.519213     -40.519213      1.798254     
    484000   1934.4765     -39.933056     -41.683411     -41.683411      1.750355     
    485000   1958.7263     -39.916064     -41.68836      -41.68836       1.7722967    
    486000   2202.8167     -39.413773     -41.406928     -41.406928      1.9931548    
    487000   1894.27       -39.787053     -41.501028     -41.501028      1.7139753    
    488000   1949.2765     -40.264028     -42.027775     -42.027775      1.7637463    
    489000   2007.7298     -40.025632     -41.842268     -41.842268      1.8166361    
    490000   2014.3608     -39.764436     -41.587072     -41.587072      1.822636     
    491000   1963.205      -39.190327     -40.966676     -40.966676      1.7763492    
    492000   2024.6918     -39.954269     -41.786253     -41.786253      1.8319837    
    493000   2082.104      -39.485422     -41.369354     -41.369354      1.8839315    
    494000   2002.5929     -39.230561     -41.042549     -41.042549      1.8119882    
    495000   1982.5642     -39.193192     -40.987058     -40.987058      1.7938658    
    496000   1963.8585     -39.307848     -41.084788     -41.084788      1.7769404    
    497000   1983.2983     -40.920006     -42.714536     -42.714536      1.79453      
    498000   1960.4832     -39.339968     -41.113854     -41.113854      1.7738864    
    499000   1976.7368     -39.108467     -40.89706      -40.89706       1.788593     
    500000   1977.5257     -40.341634     -42.130941     -42.130941      1.7893068    
    501000   1885.5257     -39.565955     -41.272019     -41.272019      1.7060633    
    502000   1960.524      -39.249166     -41.023089     -41.023089      1.7739234    
    503000   2012.6805     -41.0092       -42.830315     -42.830315      1.8211157    
    504000   2038.6953     -40.390556     -42.235211     -42.235211      1.8446544    
    505000   2040.7158     -40.332391     -42.178874     -42.178874      1.8464825    
    506000   1997.3922     -40.025453     -41.832736     -41.832736      1.8072824    
    507000   1965.707      -39.679492     -41.458105     -41.458105      1.778613     
    508000   2038.3099     -40.422842     -42.267148     -42.267148      1.8443056    
    509000   2042.9995     -40.997937     -42.846486     -42.846486      1.8485489    
    510000   1962.0051     -40.605942     -42.381205     -42.381205      1.7752634    
    511000   2019.7382     -39.121169     -40.94867      -40.94867       1.8275015    
    512000   2139.864      -40.399029     -42.335223     -42.335223      1.9361939    
    513000   2063.9329     -40.32354      -42.19103      -42.19103       1.8674899    
    514000   1937.1212     -38.781843     -40.534591     -40.534591      1.752748     
    515000   2265.5015     -39.928885     -41.978758     -41.978758      2.0498734    
    516000   2069.2988     -40.472336     -42.344681     -42.344681      1.872345     
    517000   2180.9533     -39.641779     -41.615152     -41.615152      1.9733724    
    518000   1891.7946     -39.648829     -41.360564     -41.360564      1.7117355    
    519000   2030.6039     -39.814407     -41.65174      -41.65174       1.8373331    
    520000   2078.1868     -38.68035      -40.560737     -40.560737      1.8803871    
    521000   2071.158      -39.740144     -41.614172     -41.614172      1.8740273    
    522000   2048.0429     -39.702125     -41.555237     -41.555237      1.8531122    
    523000   2072.3441     -40.354501     -42.229602     -42.229602      1.8751005    
    524000   1994.8909     -39.068945     -40.873965     -40.873965      1.8050192    
    525000   2019.4838     -38.947291     -40.774563     -40.774563      1.8272714    
    526000   2143.6615     -40.391948     -42.331578     -42.331578      1.93963      
    527000   2116.13       -40.611244     -42.525963     -42.525963      1.9147189    
    528000   2277.3088     -38.62917      -40.689727     -40.689727      2.0605569    
    529000   2149.9144     -39.294525     -41.239813     -41.239813      1.9452877    
    530000   1972.8056     -39.325525     -41.110561     -41.110561      1.785036     
    531000   2039.5035     -40.34076      -42.186146     -42.186146      1.8453856    
    532000   2286.0715     -40.462677     -42.531163     -42.531163      2.0684855    
    533000   2010.5743     -39.390521     -41.209731     -41.209731      1.8192099    
    534000   1983.0297     -40.302377     -42.096664     -42.096664      1.794287     
    535000   2191.3986     -40.441393     -42.424217     -42.424217      1.9828235    
    536000   2163.42       -39.592855     -41.550363     -41.550363      1.9575079    
    537000   2117.6102     -39.464956     -41.381014     -41.381014      1.9160582    
    538000   2078.408      -40.606272     -42.486859     -42.486859      1.8805872    
    539000   1979.2489     -38.301892     -40.092758     -40.092758      1.790866     
    540000   2131.2355     -38.085185     -40.013571     -40.013571      1.9283866    
    541000   2467.1174     -38.031983     -40.264283     -40.264283      2.2322996    
    542000   2282.7952     -39.777662     -41.843183     -41.843183      2.0655211    
    543000   2379.018      -38.27694      -40.429525     -40.429525      2.1525854    
    544000   2218.2264     -39.949525     -41.956623     -41.956623      2.0070979    
    545000   2186.6759     -37.968992     -39.947543     -39.947543      1.9785503    
    546000   2054.964      -39.67283      -41.532205     -41.532205      1.8593746    
    547000   2289.9791     -40.16846      -42.240481     -42.240481      2.0720212    
    548000   2118.5921     -39.789112     -41.706059     -41.706059      1.9169467    
    549000   2166.2564     -39.551314     -41.511388     -41.511388      1.9600743    
    550000   2140.1437     -39.547863     -41.48431      -41.48431       1.936447     
    551000   2192.1499     -38.827356     -40.810859     -40.810859      1.9835033    
    552000   2134.2094     -40.023518     -41.954595     -41.954595      1.9310775    
    553000   2394.3683     -37.261655     -39.42813      -39.42813       2.1664748    
    554000   2229.3078     -37.905648     -39.922773     -39.922773      2.0171246    
    555000   2351.5489     -39.577916     -41.705647     -41.705647      2.1277308    
    556000   2145.6808     -40.397056     -42.338513     -42.338513      1.9414571    
    557000   2115.6643     -38.668921     -40.583219     -40.583219      1.9142975    
    558000   2260.5959     -39.736816     -41.782251     -41.782251      2.0454347    
    559000   2314.7318     -40.242835     -42.337253     -42.337253      2.094418     
    560000   2094.5879     -39.53681      -41.432037     -41.432037      1.8952271    
    561000   2261.0642     -39.290976     -41.336834     -41.336834      2.0458584    
    562000   2295.8572     -39.24431      -41.32165      -41.32165       2.0773398    
    563000   2310.3043     -40.053947     -42.144359     -42.144359      2.0904119    
    564000   2300.9633     -39.143571     -41.225531     -41.225531      2.0819599    
    565000   2261.6594     -38.339386     -40.385782     -40.385782      2.0463969    
    566000   2248.0784     -39.759727     -41.793835     -41.793835      2.0341086    
    567000   2279.8711     -39.459444     -41.522319     -41.522319      2.0628753    
    568000   2210.6709     -39.170521     -41.170782     -41.170782      2.0002615    
    569000   2256.0708     -39.97002      -42.01136      -42.01136       2.0413403    
    570000   2076.3743     -39.794925     -41.673672     -41.673672      1.8787471    
    571000   2364.8155     -39.883407     -42.023142     -42.023142      2.1397348    
    572000   2356.723      -39.882066     -42.014479     -42.014479      2.1324125    
    573000   2239.5019     -39.143316     -41.169664     -41.169664      2.0263484    
    574000   2404.5556     -38.544167     -40.719859     -40.719859      2.1756925    
    575000   2293.0096     -38.200521     -40.275285     -40.275285      2.0747633    
    576000   2080.0932     -39.158948     -41.04106      -41.04106       1.8821121    
    577000   2238.1411     -38.424584     -40.449701     -40.449701      2.0251171    
    578000   2296.5838     -39.60999      -41.687987     -41.687987      2.0779973    
    579000   2295.2003     -39.057674     -41.13442      -41.13442       2.0767454    
    580000   2332.1968     -38.012504     -40.122724     -40.122724      2.1102207    
    581000   2216.3921     -38.624655     -40.630093     -40.630093      2.0054381    
    582000   2588.7297     -38.693759     -41.036096     -41.036096      2.342337     
    583000   2486.902      -39.981758     -42.231959     -42.231959      2.2502012    
    584000   2229.6401     -40.273356     -42.290781     -42.290781      2.0174252    
    585000   2354.9541     -39.975503     -42.106315     -42.106315      2.1308119    
    586000   2347.9        -39.69159      -41.816019     -41.816019      2.1244292    
    587000   2365.1891     -40.440498     -42.580571     -42.580571      2.1400728    
    588000   2360.876      -39.04939      -41.18556      -41.18556       2.1361702    
    589000   2318.307      -39.685257     -41.78291      -41.78291       2.0976529    
    590000   2446.8221     -40.089123     -42.303059     -42.303059      2.2139361    
    591000   2419.6618     -39.952661     -42.142021     -42.142021      2.1893609    
    592000   2418.4412     -39.993476     -42.181733     -42.181733      2.1882565    
    593000   2367.3702     -38.69842      -40.840466     -40.840466      2.1420463    
    594000   2287.2706     -38.84796      -40.917531     -40.917531      2.0695705    
    595000   2456.0786     -37.33465      -39.556962     -39.556962      2.2223115    
    596000   2229.7225     -39.066808     -41.084307     -41.084307      2.0174998    
    597000   2490.2497     -39.373814     -41.627044     -41.627044      2.2532302    
    598000   2517.5097     -38.642376     -40.920272     -40.920272      2.2778957    
    599000   2265.0014     -38.396282     -40.445703     -40.445703      2.0494208    
    600000   2455.6097     -39.990969     -42.212856     -42.212856      2.2218873    
    601000   2398.7892     -40.08094      -42.251415     -42.251415      2.1704749    
    602000   2442.5118     -39.01891      -41.228946     -41.228946      2.210036     
    603000   2368.4931     -37.755204     -39.898267     -39.898267      2.1430623    
    604000   2641.4303     -38.446206     -40.836227     -40.836227      2.3900216    
    605000   2325.4042     -39.502091     -41.606165     -41.606165      2.1040746    
    606000   2273.9173     -38.631249     -40.688738     -40.688738      2.0574881    
    607000   2392.2971     -39.405751     -41.570351     -41.570351      2.1646007    
    608000   2412.8135     -39.094625     -41.277789     -41.277789      2.1831643    
    609000   2527.9256     -39.20885      -41.496171     -41.496171      2.2873202    
    610000   2459.759      -39.999852     -42.225494     -42.225494      2.2256416    
    611000   2452.9228     -39.040746     -41.260202     -41.260202      2.2194561    
    612000   2359.9376     -39.137455     -41.272776     -41.272776      2.1353211    
    613000   2550.4466     -39.257339     -41.565036     -41.565036      2.3076977    
    614000   2356.6446     -38.944299     -41.076641     -41.076641      2.1323415    
    615000   2408.2958     -38.498796     -40.677873     -40.677873      2.1790766    
    616000   2397.6348     -38.099503     -40.268934     -40.268934      2.1694304    
    617000   2545.5085     -39.335696     -41.638926     -41.638926      2.3032296    
    618000   2448.2766     -38.081941     -40.297193     -40.297193      2.2152521    
    619000   2442.0355     -38.6299       -40.839505     -40.839505      2.2096051    
    620000   2478.0232     -38.297435     -40.539603     -40.539603      2.2421675    
    621000   2490.5001     -38.522569     -40.776025     -40.776025      2.2534568    
    622000   2367.6847     -38.762833     -40.905164     -40.905164      2.1423309    
    623000   2482.5541     -39.274881     -41.521148     -41.521148      2.2462671    
    624000   2440.9184     -38.766164     -40.974758     -40.974758      2.2085942    
    625000   2402.406      -38.821858     -40.995605     -40.995605      2.1737474    
    626000   2466.3527     -39.681813     -41.91342      -41.91342       2.2316077    
    627000   2669.7324     -38.325023     -40.740653     -40.740653      2.41563      
    628000   2533.4571     -38.661473     -40.953799     -40.953799      2.2923253    
    629000   2552.8745     -39.014414     -41.324308     -41.324308      2.3098945    
    630000   2492.4879     -39.514595     -41.769851     -41.769851      2.2552554    
    631000   2516.4391     -39.232777     -41.509704     -41.509704      2.276927     
    632000   2552.0465     -38.453368     -40.762514     -40.762514      2.3091453    
    633000   2472.1325     -39.307104     -41.543941     -41.543941      2.2368374    
    634000   2574.8224     -39.073994     -41.403747     -41.403747      2.3297534    
    635000   2441.5748     -39.649532     -41.85872      -41.85872       2.2091882    
    636000   2487.0604     -38.380302     -40.630646     -40.630646      2.2503445    
    637000   2666.6156     -38.696256     -41.109066     -41.109066      2.4128098    
    638000   2552.2309     -39.599599     -41.908911     -41.908911      2.3093121    
    639000   2731.135      -38.992845     -41.464033     -41.464033      2.4711883    
    640000   2533.079      -39.202288     -41.494271     -41.494271      2.2919831    
    641000   2567.1376     -39.185206     -41.508006     -41.508006      2.3228       
    642000   2512.0076     -38.875085     -41.148003     -41.148003      2.2729173    
    643000   2631.2441     -37.640941     -40.021746     -40.021746      2.380805     
    644000   2502.0161     -39.094675     -41.358552     -41.358552      2.2638767    
    645000   2738.4919     -38.327681     -40.805526     -40.805526      2.477845     
    646000   2529.0971     -38.734413     -41.022794     -41.022794      2.2883802    
    647000   2882.4153     -38.260203     -40.868273     -40.868273      2.6080699    
    648000   2342.298      -37.93742      -40.056781     -40.056781      2.1193604    
    649000   2407.1442     -39.209438     -41.387473     -41.387473      2.1780346    
    650000   2468.5045     -38.919926     -41.153481     -41.153481      2.2335548    
    651000   2561.4922     -37.969253     -40.286945     -40.286945      2.317692     
    652000   2706.1202     -36.761819     -39.210373     -39.210373      2.4485544    
    653000   2654.9566     -39.297659     -41.699919     -41.699919      2.4022605    
    654000   2592.9206     -39.00126      -41.347389     -41.347389      2.346129     
    655000   2713.1137     -38.553966     -41.008848     -41.008848      2.4548823    
    656000   2562.9284     -38.558418     -40.877409     -40.877409      2.3189915    
    657000   2683.2002     -39.69722      -42.125036     -42.125036      2.427816     
    658000   2522.9658     -38.934648     -41.217481     -41.217481      2.2828325    
    659000   2656.2723     -37.736146     -40.139597     -40.139597      2.403451     
    660000   2673.2293     -38.771889     -41.190683     -41.190683      2.418794     
    661000   2506.6252     -39.118076     -41.386124     -41.386124      2.2680472    
    662000   2804.6964     -37.171097     -39.708845     -39.708845      2.5377482    
    663000   2762.7533     -39.045446     -41.545243     -41.545243      2.4997972    
    664000   2684.1735     -39.168837     -41.597534     -41.597534      2.4286966    
    665000   2631.3069     -39.49261      -41.873471     -41.873471      2.3808618    
    666000   2561.3244     -36.969036     -39.286576     -39.286576      2.3175402    
    667000   2808.5922     -37.286028     -39.827301     -39.827301      2.5412732    
    668000   2697.6859     -38.984017     -41.42494      -41.42494       2.4409229    
    669000   2621.7284     -39.492461     -41.864656     -41.864656      2.372195     
    670000   2666.6883     -39.015616     -41.428491     -41.428491      2.4128756    
    671000   2648.689      -38.262122     -40.658711     -40.658711      2.3965895    
    672000   2808.3512     -40.322145     -42.8632       -42.8632        2.5410552    
    673000   2820.9781     -38.550873     -41.103353     -41.103353      2.5524803    
    674000   2612.5533     -39.329155     -41.693048     -41.693048      2.3638931    
    675000   2754.2993     -38.824377     -41.316525     -41.316525      2.4921479    
    676000   2614.899      -39.088798     -41.454813     -41.454813      2.3660156    
    677000   2628.8214     -38.559315     -40.937928     -40.937928      2.3786128    
    678000   2628.7895     -38.368309     -40.746893     -40.746893      2.378584     
    679000   2908.1068     -38.494775     -41.126091     -41.126091      2.6313162    
    680000   2766.1433     -39.350388     -41.853252     -41.853252      2.5028646    
    681000   2628.3245     -39.698029     -42.076192     -42.076192      2.3781632    
    682000   2588.8031     -38.029221     -40.371625     -40.371625      2.3424034    
    683000   2721.9618     -38.499355     -40.962244     -40.962244      2.4628882    
    684000   2743.9093     -38.184543     -40.66729      -40.66729       2.4827468    
    685000   2625.3657     -38.255765     -40.631251     -40.631251      2.3754861    
    686000   2669.804      -38.025922     -40.441617     -40.441617      2.4156948    
    687000   2780.9469     -38.006303     -40.522562     -40.522562      2.5162592    
    688000   2580.4583     -37.000145     -39.334997     -39.334997      2.3348529    
    689000   2735.2669     -37.286642     -39.761569     -39.761569      2.474927     
    690000   2879.4921     -37.491785     -40.09721      -40.09721       2.605425     
    691000   2973.1328     -37.588865     -40.279018     -40.279018      2.6901531    
    692000   2632.6806     -38.397011     -40.779115     -40.779115      2.3821047    
    693000   2778.9847     -37.936209     -40.450693     -40.450693      2.5144838    
    694000   2751.9386     -37.086052     -39.576064     -39.576064      2.4900119    
    695000   2873.5884     -37.739225     -40.339308     -40.339308      2.6000832    
    696000   2964.5724     -37.546488     -40.228895     -40.228895      2.6824074    
    697000   2813.7818     -38.789544     -41.335512     -41.335512      2.5459689    
    698000   2936.2204     -37.776642     -40.433396     -40.433396      2.6567539    
    699000   2699.9944     -38.901053     -41.344065     -41.344065      2.4430116    
    700000   2787.4208     -38.564306     -41.086423     -41.086423      2.5221169    
    701000   2843.9438     -38.691676     -41.264936     -41.264936      2.5732602    
    702000   2788.6856     -37.768083     -40.291345     -40.291345      2.5232613    
    703000   2619.5301     -38.250267     -40.620473     -40.620473      2.3702059    
    704000   2615.3813     -36.607432     -38.973884     -38.973884      2.366452     
    705000   2872.1383     -37.559901     -40.158672     -40.158672      2.5987711    
    706000   2740.4928     -38.408014     -40.887669     -40.887669      2.4796555    
    707000   2654.8245     -37.547261     -39.949402     -39.949402      2.402141     
    708000   2668.2293     -37.369136     -39.783406     -39.783406      2.41427      
    709000   2913.5133     -38.08084      -40.717049     -40.717049      2.6362081    
    710000   2900.5019     -37.708535     -40.33297      -40.33297       2.6244351    
    711000   2861.384      -37.452357     -40.041398     -40.041398      2.5890404    
    712000   2830.3289     -38.033974     -40.594915     -40.594915      2.5609411    
    713000   2735.6827     -38.015856     -40.491159     -40.491159      2.4753032    
    714000   2821.1443     -38.237754     -40.790384     -40.790384      2.5526306    
    715000   2811.5371     -37.861847     -40.405785     -40.405785      2.5439378    
    716000   2824.1502     -36.224999     -38.780349     -38.780349      2.5553505    
    717000   2987.6029     -37.488908     -40.192154     -40.192154      2.7032459    
    718000   2912.3763     -37.957941     -40.593121     -40.593121      2.6351793    
    719000   2826.3931     -39.108099     -41.665479     -41.665479      2.5573799    
    720000   2878.4255     -39.129018     -41.733478     -41.733478      2.6044598    
    721000   2768.0005     -37.348528     -39.853073     -39.853073      2.504545     
    722000   2913.1695     -39.498164     -42.134061     -42.134061      2.635897     
    723000   2855.9549     -38.203343     -40.787471     -40.787471      2.584128     
    724000   2991.5231     -37.881294     -40.588087     -40.588087      2.7067929    
    725000   2917.48       -38.512629     -41.152426     -41.152426      2.6397972    
    726000   2946.2927     -37.838095     -40.503962     -40.503962      2.6658675    
    727000   2945.7444     -38.357427     -41.022799     -41.022799      2.6653715    
    728000   2896.483      -37.642848     -40.263647     -40.263647      2.6207987    
    729000   2907.8371     -39.532804     -42.163876     -42.163876      2.6310721    
    730000   2855.1517     -38.544698     -41.128099     -41.128099      2.5834013    
    731000   2791.6117     -37.77523      -40.301139     -40.301139      2.5259089    
    732000   2907.3038     -38.856942     -41.487532     -41.487532      2.6305895    
    733000   2998.9027     -37.817452     -40.530922     -40.530922      2.7134702    
    734000   2957.8233     -38.872099     -41.548399     -41.548399      2.6763007    
    735000   2893.8652     -39.000727     -41.619157     -41.619157      2.6184301    
    736000   2863.653      -37.551756     -40.142849     -40.142849      2.5910934    
    737000   2982.401      -36.615439     -39.313978     -39.313978      2.6985391    
    738000   3163.2814     -37.581712     -40.443915     -40.443915      2.8622035    
    739000   2905.6881     -38.714377     -41.343505     -41.343505      2.6291276    
    740000   2937.1969     -38.311255     -40.968893     -40.968893      2.6576375    
    741000   2829.7537     -38.379056     -40.939476     -40.939476      2.5604206    
    742000   3021.5967     -38.280594     -41.014598     -41.014598      2.7340042    
    743000   2989.3354     -37.682929     -40.387742     -40.387742      2.7048135    
    744000   2990.2636     -38.383999     -41.089652     -41.089652      2.7056533    
    745000   2921.5019     -38.052603     -40.69604      -40.69604       2.6434363    
    746000   2749.1598     -37.146231     -39.633729     -39.633729      2.4874975    
    747000   3072.6272     -37.441237     -40.221415     -40.221415      2.7801776    
    748000   3209.747      -37.6535       -40.557746     -40.557746      2.9042465    
    749000   2874.2714     -37.371993     -39.972695     -39.972695      2.6007012    
    750000   3028.2591     -38.497217     -41.23725      -41.23725       2.7400325    
    751000   2959.8849     -38.338057     -41.016223     -41.016223      2.6781661    
    752000   2969.3445     -38.099745     -40.78647      -40.78647       2.6867253    
    753000   2959.6285     -38.510976     -41.188911     -41.188911      2.677934     
    754000   3044.6674     -38.035093     -40.789972     -40.789972      2.754879     
    755000   3011.5639     -38.103679     -40.828605     -40.828605      2.7249263    
    756000   2980.6074     -36.692542     -39.389459     -39.389459      2.6969162    
    757000   3008.9878     -38.269166     -40.991762     -40.991762      2.7225954    
    758000   3101.5741     -38.031465     -40.837835     -40.837835      2.8063694    
    759000   3147.6387     -37.900661     -40.74871      -40.74871       2.8480497    
    760000   3010.196      -36.332473     -39.056161     -39.056161      2.7236886    
    761000   3150.4884     -38.117564     -40.968192     -40.968192      2.8506281    
    762000   3054.9378     -37.926383     -40.690555     -40.690555      2.7641719    
    763000   2951.615      -38.66834      -41.339023     -41.339023      2.6706833    
    764000   3004.2058     -37.319114     -40.037382     -40.037382      2.7182685    
    765000   3063.6735     -38.370355     -41.142431     -41.142431      2.7720761    
    766000   3228.2456     -37.873686     -40.79467      -40.79467       2.9209845    
    767000   3115.1985     -38.201013     -41.019711     -41.019711      2.8186971    
    768000   3023.1442     -37.183777     -39.919182     -39.919182      2.7354044    
    769000   3099.1412     -36.837396     -39.641564     -39.641564      2.8041681    
    770000   3204.3742     -35.001527     -37.900913     -37.900913      2.8993851    
    771000   3123.8523     -37.554457     -40.380984     -40.380984      2.8265272    
    772000   3116.5983     -39.033151     -41.853115     -41.853115      2.8199637    
    773000   3177.7848     -38.84633      -41.721656     -41.721656      2.8753265    
    774000   3219.6743     -38.263967     -41.177196     -41.177196      2.913229     
    775000   3024.4079     -38.181587     -40.918135     -40.918135      2.7365478    
    776000   3164.9363     -38.418169     -41.281869     -41.281869      2.8637009    
    777000   3308.633      -35.665345     -38.659066     -38.659066      2.9937207    
    778000   3066.3274     -37.395491     -40.169969     -40.169969      2.7744775    
    779000   3032.814      -36.618113     -39.362267     -39.362267      2.7441539    
    780000   3124.0357     -36.723831     -39.550524     -39.550524      2.8266931    
    781000   2997.7326     -38.814702     -41.527114     -41.527114      2.7124114    
    782000   3041.6281     -37.586964     -40.339093     -40.339093      2.752129     
    783000   3194.4023     -38.313072     -41.203434     -41.203434      2.8903624    
    784000   3227.2968     -35.842437     -38.762563     -38.762563      2.920126     
    785000   3158.9169     -38.216919     -41.075174     -41.075174      2.8582544    
    786000   3110.3764     -38.445897     -41.260231     -41.260231      2.814334     
    787000   3311.7855     -37.154752     -40.151325     -40.151325      2.9965731    
    788000   2924.0698     -36.098799     -38.744559     -38.744559      2.6457598    
    789000   2864.8465     -38.945184     -41.537357     -41.537357      2.5921733    
    790000   3318.4764     -38.999916     -42.002543     -42.002543      3.0026272    
    791000   3119.0935     -38.006226     -40.828448     -40.828448      2.8222214    
    792000   3578.1017     -37.31944      -40.556981     -40.556981      3.2375416    
    793000   3277.8086     -39.400848     -42.366678     -42.366678      2.9658301    
    794000   3301.7201     -37.082017     -40.069483     -40.069483      2.9874657    
    795000   3253.6046     -38.592941     -41.53687      -41.53687       2.9439298    
    796000   3193.8217     -37.544263     -40.4341       -40.4341        2.889837     
    797000   3233.8317     -37.826243     -40.752282     -40.752282      2.9260388    
    798000   2672.2238     -38.576206     -40.994091     -40.994091      2.4178843    
    799000   3206.6232     -38.449276     -41.350696     -41.350696      2.90142      
    800000   3396.019      -37.211186     -40.283975     -40.283975      3.0727894    
    801000   3016.5069     -39.08825      -41.817649     -41.817649      2.7293988    
    802000   3323.4908     -39.495011     -42.502175     -42.502175      3.0071643    
    803000   2942.5228     -38.634063     -41.29652      -41.29652       2.6624565    
    804000   3208.4502     -38.217635     -41.120708     -41.120708      2.9030732    
    805000   3371.4228     -38.200772     -41.251306     -41.251306      3.0505342    
    806000   3328.6285     -39.478026     -42.489839     -42.489839      3.011813     
    807000   3225.1433     -39.989867     -42.908044     -42.908044      2.9181774    
    808000   3306.598      -39.145094     -42.136973     -42.136973      2.9918793    
    809000   2855.6606     -36.425257     -39.009119     -39.009119      2.5838617    
    810000   3355.4348     -38.976049     -42.012117     -42.012117      3.0360679    
    811000   3285.772      -40.185567     -43.158603     -43.158603      2.9730356    
    812000   3098.4952     -39.712687     -42.516271     -42.516271      2.8035836    
    813000   3331.4235     -38.182219     -41.196561     -41.196561      3.014342     
    814000   3454.2488     -37.516329     -40.641806     -40.641806      3.1254769    
    815000   3173.2197     -39.38213      -42.253325     -42.253325      2.8711959    
    816000   3142.0917     -40.083424     -42.926455     -42.926455      2.8430306    
    817000   3164.521      -40.263466     -43.126791     -43.126791      2.8633251    
    818000   3332.8726     -36.543161     -39.558815     -39.558815      3.0156532    
    819000   3260.2076     -38.828977     -41.778882     -41.778882      2.9499044    
    820000   3270.1389     -40.238911     -43.197801     -43.197801      2.9588904    
    821000   3260.9682     -40.148033     -43.098625     -43.098625      2.9505926    
    822000   3402.5998     -39.285546     -42.364289     -42.364289      3.0787438    
    823000   3307.3319     -37.546231     -40.538775     -40.538775      2.9925434    
    824000   3310.6977     -39.744126     -42.739715     -42.739715      2.9955888    
    825000   3304.449      -38.99312      -41.983055     -41.983055      2.9899349    
    826000   3403.5988     -38.600812     -41.68046      -41.68046       3.0796477    
    827000   3270.442      -39.256266     -42.215431     -42.215431      2.9591646    
    828000   3299.2534     -39.330828     -42.316062     -42.316062      2.9852338    
    829000   3267.9957     -38.714025     -41.670976     -41.670976      2.9569512    
    830000   3285.6088     -40.222315     -43.195203     -43.195203      2.9728879    
    831000   3383.2903     -38.696895     -41.758167     -41.758167      3.0612722    
    832000   3474.6934     -39.353831     -42.497807     -42.497807      3.1439756    
    833000   3449.0986     -39.744769     -42.865586     -42.865586      3.1208169    
    834000   3270.6304     -39.636856     -42.596191     -42.596191      2.9593351    
    835000   3242.1672     -39.778336     -42.711917     -42.711917      2.933581     
    836000   3299.676      -38.314878     -41.300494     -41.300494      2.9856162    
    837000   3414.2207     -39.205698     -42.294956     -42.294956      3.0892587    
    838000   3423.1681     -39.843553     -42.940907     -42.940907      3.0973544    
    839000   3335.0504     -40.245281     -43.262905     -43.262905      3.0176237    
    840000   3293.2514     -40.258224     -43.238027     -43.238027      2.979803     
    841000   3284.1412     -39.622902     -42.594462     -42.594462      2.97156      
    842000   3458.4475     -39.785103     -42.914378     -42.914378      3.1292759    
    843000   3449.596      -39.073716     -42.194983     -42.194983      3.1212669    
    844000   3339.0997     -39.579954     -42.601242     -42.601242      3.0212876    
    845000   3409.5963     -39.688312     -42.773386     -42.773386      3.0850744    
    846000   3359.559      -39.165202     -42.205002     -42.205002      3.0397996    
    847000   3289.0098     -37.311976     -40.287941     -40.287941      2.9759652    
    848000   3402.4621     -38.947681     -42.0263       -42.0263        3.0786192    
    849000   3401.0512     -39.622849     -42.700192     -42.700192      3.0773426    
    850000   3336.0957     -37.877604     -40.896173     -40.896173      3.0185695    
    851000   3352.4374     -39.704495     -42.73785      -42.73785       3.0333558    
    852000   3367.7752     -39.536472     -42.583706     -42.583706      3.0472338    
    853000   3521.6118     -38.05464      -41.241068     -41.241068      3.1864284    
    854000   3303.884      -39.101391     -42.090815     -42.090815      2.9894237    
    855000   3394.0631     -36.928144     -39.999164     -39.999164      3.0710196    
    856000   3325.3156     -37.023712     -40.032527     -40.032527      3.0088155    
    857000   3797.1594     -37.696933     -41.132682     -41.132682      3.4357496    
    858000   3361.6578     -36.948402     -39.990101     -39.990101      3.0416986    
    859000   3351.8851     -37.717664     -40.750521     -40.750521      3.0328561    
    860000   3592.3513     -38.797114     -42.047549     -42.047549      3.2504349    
    861000   3409.3779     -39.027913     -42.11279      -42.11279       3.0848768    
    862000   3375.2972     -39.616678     -42.670718     -42.670718      3.0540399    
    863000   3501.057      -36.450588     -39.618418     -39.618418      3.16783      
    864000   3427.0209     -39.250773     -42.351613     -42.351613      3.1008406    
    865000   3503.9084     -38.306682     -41.477092     -41.477092      3.1704099    
    866000   3414.759      -38.81198      -41.901725     -41.901725      3.0897457    
    867000   3570.0783     -38.49503      -41.725312     -41.725312      3.2302819    
    868000   3459.5267     -38.139956     -41.270208     -41.270208      3.1302525    
    869000   3661.8172     -37.662866     -40.976155     -40.976155      3.3132892    
    870000   3198.8993     -38.797666     -41.692097     -41.692097      2.8944314    
    871000   3359.4108     -39.282427     -42.322093     -42.322093      3.0396655    
    872000   3423.2535     -39.724422     -42.821854     -42.821854      3.0974317    
    873000   3264.744      -39.362142     -42.316151     -42.316151      2.954009     
    874000   3580.0218     -39.250762     -42.490041     -42.490041      3.2392789    
    875000   3500.9055     -39.585224     -42.752917     -42.752917      3.1676929    
[...]
   1888000   828.95483     -42.97133      -43.721386     -43.721386      0.75005575   
   1889000   817.51301     -42.704499     -43.444202     -43.444202      0.73970295   
   1890000   876.82212     -42.746337     -43.539704     -43.539704      0.79336708   
   1891000   880.63311     -42.795154     -43.591969     -43.591969      0.79681535   
   1892000   816.24826     -42.866522     -43.60508      -43.60508       0.73855858   
   1893000   810.61595     -42.86137      -43.594832     -43.594832      0.73346235   
   1894000   803.74663     -42.486826     -43.214073     -43.214073      0.72724684   
   1895000   848.15611     -42.599337     -43.366767     -43.366767      0.76742947   
   1896000   801.06696     -43.016366     -43.741188     -43.741188      0.72482222   
   1897000   818.54276     -42.715255     -43.45589      -43.45589       0.74063469   
   1898000   817.99778     -42.973624     -43.713765     -43.713765      0.74014159   
   1899000   770.26316     -43.033761     -43.730711     -43.730711      0.69695029   
   1900000   763.69037     -42.868999     -43.560002     -43.560002      0.69100309   
   1901000   793.67709     -42.047563     -42.765699     -42.765699      0.71813571   
   1902000   786.66775     -42.083722     -42.795516     -42.795516      0.71179351   
   1903000   754.33309     -42.502792     -43.185329     -43.185329      0.68253643   
   1904000   799.15795     -43.105928     -43.829023     -43.829023      0.7230949    
   1905000   765.99315     -43.116081     -43.809167     -43.809167      0.6930867    
   1906000   784.78392     -42.916202     -43.626291     -43.626291      0.71008899   
   1907000   785.40802     -43.254826     -43.965479     -43.965479      0.71065368   
   1908000   758.43678     -42.380127     -43.066376     -43.066376      0.68624953   
   1909000   770.06387     -42.545197     -43.241967     -43.241967      0.69676997   
   1910000   767.23365     -42.596511     -43.29072      -43.29072       0.69420913   
   1911000   759.14162     -43.119969     -43.806856     -43.806856      0.68688729   
   1912000   771.72795     -42.953532     -43.651807     -43.651807      0.69827566   
   1913000   740.30321     -42.970093     -43.639935     -43.639935      0.6698419    
   1914000   733.77821     -42.567841     -43.231779     -43.231779      0.66393794   
   1915000   778.54578     -42.749482     -43.453927     -43.453927      0.70444459   
   1916000   724.93119     -42.681167     -43.3371       -43.3371        0.65593298   
   1917000   732.69563     -43.176595     -43.839554     -43.839554      0.66295841   
   1918000   722.75587     -42.885916     -43.539881     -43.539881      0.6539647    
   1919000   743.85001     -42.970267     -43.643318     -43.643318      0.67305112   
   1920000   712.21695     -43.096694     -43.741123     -43.741123      0.64442886   
   1921000   740.47222     -43.045743     -43.715738     -43.715738      0.66999483   
   1922000   741.82455     -42.707821     -43.37904      -43.37904       0.67121844   
   1923000   707.21987     -42.757741     -43.397649     -43.397649      0.6399074    
   1924000   682.39886     -42.905125     -43.522574     -43.522574      0.61744883   
   1925000   714.69414     -42.74843      -43.3951       -43.3951        0.64667028   
   1926000   698.9888      -42.641036     -43.273496     -43.273496      0.63245976   
   1927000   698.53221     -42.98386      -43.615907     -43.615907      0.63204662   
   1928000   670.91138     -42.987253     -43.594308     -43.594308      0.60705472   
   1929000   708.8735      -42.906708     -43.548111     -43.548111      0.64140364   
   1930000   692.48846     -43.195611     -43.82219      -43.82219       0.62657811   
   1931000   649.4666      -42.676756     -43.264407     -43.264407      0.58765103   
   1932000   653.25446     -43.120535     -43.711613     -43.711613      0.59107837   
   1933000   691.1537      -42.898254     -43.523625     -43.523625      0.6253704    
   1934000   650.78982     -42.986067     -43.574915     -43.574915      0.58884831   
   1935000   641.56302     -43.09851      -43.67901      -43.67901       0.5804997    
   1936000   647.28691     -43.047899     -43.633578     -43.633578      0.5856788    
   1937000   634.68985     -42.756095     -43.330376     -43.330376      0.57428071   
   1938000   664.17149     -42.943877     -43.544833     -43.544833      0.60095632   
   1939000   671.74965     -42.958877     -43.56669      -43.56669       0.6078132    
   1940000   658.6623      -42.668083     -43.264055     -43.264055      0.59597149   
   1941000   582.48267     -42.621642     -43.148685     -43.148685      0.52704256   
   1942000   639.68897     -42.849136     -43.42794      -43.42794       0.57880402   
   1943000   593.15408     -42.833235     -43.369933     -43.369933      0.53669827   
   1944000   642.66455     -43.258995     -43.840492     -43.840492      0.58149639   
   1945000   613.24368     -43.145472     -43.700348     -43.700348      0.55487577   
   1946000   635.32163     -42.984776     -43.559628     -43.559628      0.57485236   
   1947000   627.33241     -43.297789     -43.865413     -43.865413      0.56762355   
   1948000   597.09806     -43.31737      -43.857637     -43.857637      0.54026688   
   1949000   577.57165     -42.772266     -43.294864     -43.294864      0.52259897   
   1950000   589.70361     -42.85391      -43.387487     -43.387487      0.53357622   
   1951000   598.42741     -43.289343     -43.830813     -43.830813      0.5414697    
   1952000   579.33377     -43.118483     -43.642676     -43.642676      0.52419337   
   1953000   584.46187     -43.054512     -43.583346     -43.583346      0.52883338   
   1954000   590.76579     -43.175707     -43.710244     -43.710244      0.5345373    
   1955000   581.99183     -43.131519     -43.658117     -43.658117      0.52659844   
   1956000   564.80633     -43.149069     -43.660118     -43.660118      0.51104863   
   1957000   564.76135     -43.19855      -43.709558     -43.709558      0.51100794   
   1958000   578.08851     -43.1321       -43.655166     -43.655166      0.52306663   
   1959000   552.56978     -43.038293     -43.538269     -43.538269      0.49997675   
   1960000   557.50996     -43.183202     -43.687649     -43.687649      0.50444672   
   1961000   547.13107     -43.176528     -43.671584     -43.671584      0.49505569   
   1962000   541.78185     -42.975855     -43.466071     -43.466071      0.4902156    
   1963000   557.10262     -43.188847     -43.692925     -43.692925      0.50407816   
   1964000   530.48005     -43.078168     -43.558158     -43.558158      0.4799895    
   1965000   513.76019     -43.284017     -43.748878     -43.748878      0.46486102   
   1966000   527.63369     -42.826586     -43.304        -43.304         0.47741405   
   1967000   536.07381     -43.307009     -43.79206      -43.79206       0.48505085   
   1968000   546.02416     -43.263188     -43.757242     -43.757242      0.49405414   
   1969000   510.07943     -43.058053     -43.519583     -43.519583      0.46153059   
   1970000   535.3928      -42.939454     -43.423889     -43.423889      0.48443465   
   1971000   512.3916      -43.378627     -43.842249     -43.842249      0.46362269   
   1972000   506.71218     -43.177843     -43.636327     -43.636327      0.45848383   
   1973000   516.4313      -43.008221     -43.475499     -43.475499      0.46727789   
   1974000   491.33597     -43.008141     -43.452712     -43.452712      0.44457111   
   1975000   476.76083     -43.25082      -43.682203     -43.682203      0.43138322   
   1976000   497.56153     -43.008944     -43.459148     -43.459148      0.45020413   
   1977000   474.63708     -43.287966     -43.717428     -43.717428      0.42946161   
   1978000   469.99503     -43.159277     -43.584539     -43.584539      0.42526138   
   1979000   497.31923     -43.26535      -43.715335     -43.715335      0.44998489   
   1980000   469.40484     -43.417303     -43.84203      -43.84203       0.42472736   
   1981000   482.99293     -43.367371     -43.804393     -43.804393      0.43702216   
   1982000   454.33117     -43.352643     -43.763731     -43.763731      0.41108839   
   1983000   464.85408     -43.187225     -43.607834     -43.607834      0.42060974   
   1984000   458.27016     -43.337061     -43.751713     -43.751713      0.41465247   
   1985000   455.52526     -43.208871     -43.62104      -43.62104       0.41216883   
   1986000   454.51959     -43.480788     -43.892047     -43.892047      0.41125888   
   1987000   452.25336     -43.207338     -43.616546     -43.616546      0.40920834   
   1988000   453.77034     -43.256671     -43.667252     -43.667252      0.41058094   
   1989000   455.84524     -43.373991     -43.78645      -43.78645       0.41245835   
   1990000   443.13877     -43.478188     -43.879149     -43.879149      0.40096127   
   1991000   439.81151     -43.395168     -43.793119     -43.793119      0.3979507    
   1992000   409.3616      -43.165618     -43.536017     -43.536017      0.37039898   
   1993000   439.48996     -43.242763     -43.640423     -43.640423      0.39765975   
   1994000   433.86449     -43.138754     -43.531323     -43.531323      0.39256971   
   1995000   422.20126     -43.189393     -43.571409     -43.571409      0.38201658   
   1996000   416.82481     -43.497309     -43.874461     -43.874461      0.37715185   
   1997000   402.82355     -43.247713     -43.612196     -43.612196      0.36448322   
   1998000   379.14325     -43.151503     -43.49456      -43.49456       0.34305678   
   1999000   400.91251     -43.352564     -43.715318     -43.715318      0.36275407   
   2000000   404.75478     -43.179317     -43.545547     -43.545547      0.36623064   
   2001000   407.63444     -43.571512     -43.940348     -43.940348      0.3688362    
   2002000   379.10601     -43.385363     -43.728386     -43.728386      0.34302309   
   2003000   390.13802     -43.222767     -43.575772     -43.575772      0.35300508   
   2004000   348.20814     -43.403863     -43.718929     -43.718929      0.31506604   
   2005000   391.30317     -43.451906     -43.805965     -43.805965      0.35405933   
   2006000   371.67596     -43.529553     -43.865854     -43.865854      0.33630022   
   2007000   370.19428     -43.562473     -43.897433     -43.897433      0.33495956   
   2008000   355.25713     -43.414521     -43.735965     -43.735965      0.32144412   
   2009000   378.92065     -43.424392     -43.767248     -43.767248      0.34285537   
   2010000   377.2509      -43.205372     -43.546717     -43.546717      0.34134454   
   2011000   345.71087     -43.584614     -43.897421     -43.897421      0.31280646   
   2012000   340.54521     -43.359948     -43.668081     -43.668081      0.30813246   
   2013000   349.4083      -43.596035     -43.912187     -43.912187      0.31615197   
   2014000   359.68918     -43.346514     -43.671968     -43.671968      0.32545433   
   2015000   355.99812     -43.406479     -43.728593     -43.728593      0.32211458   
   2016000   335.39148     -43.625349     -43.928818     -43.928818      0.30346926   
   2017000   322.72953     -43.491323     -43.783336     -43.783336      0.29201246   
   2018000   324.06028     -43.513258     -43.806475     -43.806475      0.29321655   
   2019000   324.79234     -43.328281     -43.62216      -43.62216       0.29387894   
   2020000   324.43954     -43.390508     -43.684067     -43.684067      0.29355972   
   2021000   308.99584     -43.527959     -43.807545     -43.807545      0.27958593   
   2022000   311.43677     -43.499365     -43.781159     -43.781159      0.28179453   
   2023000   317.39862     -43.579747     -43.866936     -43.866936      0.28718895   
   2024000   303.4979      -43.420063     -43.694674     -43.694674      0.27461128   
   2025000   293.76218     -43.451587     -43.717389     -43.717389      0.2658022    
   2026000   288.7827      -43.478902     -43.740199     -43.740199      0.26129666   
   2027000   281.96877     -43.441126     -43.696257     -43.696257      0.25513127   
   2028000   272.72695     -43.633855     -43.880624     -43.880624      0.24676908   
   2029000   269.98736     -43.595164     -43.839454     -43.839454      0.24429024   
   2030000   273.62325     -43.558315     -43.805895     -43.805895      0.24758006   
   2031000   282.66326     -43.491738     -43.747498     -43.747498      0.25575966   
   2032000   279.70615     -43.635334     -43.888418     -43.888418      0.25308401   
   2033000   267.28452     -43.52132      -43.763165     -43.763165      0.24184465   
   2034000   263.80954     -43.472708     -43.711408     -43.711408      0.23870042   
   2035000   252.67546     -43.49428      -43.722906     -43.722906      0.22862607   
   2036000   255.77645     -43.647649     -43.879081     -43.879081      0.23143191   
   2037000   252.28284     -43.629742     -43.858012     -43.858012      0.22827082   
   2038000   238.98851     -43.728555     -43.944797     -43.944797      0.21624183   
   2039000   241.93027     -43.71641      -43.935313     -43.935313      0.21890359   
   2040000   242.80215     -43.684174     -43.903866     -43.903866      0.21969248   
   2041000   240.88945     -43.703405     -43.921367     -43.921367      0.21796184   
   2042000   231.52431     -43.741432     -43.95092      -43.95092       0.20948806   
   2043000   217.61132     -43.682615     -43.879515     -43.879515      0.1968993    
   2044000   225.49797     -43.720457     -43.924492     -43.924492      0.2040353    
   2045000   222.83111     -43.66337      -43.864992     -43.864992      0.20162227   
   2046000   214.45172     -43.663617     -43.857658     -43.857658      0.19404042   
   2047000   206.00997     -43.701924     -43.888326     -43.888326      0.18640215   
   2048000   213.57602     -43.759128     -43.952376     -43.952376      0.19324807   
   2049000   198.13233     -43.799815     -43.979089     -43.979089      0.1792743    
   2050000   193.19038     -43.730122     -43.904925     -43.904925      0.17480272   
   2051000   198.06445     -43.646781     -43.825994     -43.825994      0.17921288   
   2052000   196.51423     -43.514987     -43.692798     -43.692798      0.1778102    
   2053000   193.36556     -43.661819     -43.83678      -43.83678       0.17496122   
   2054000   185.05228     -43.759812     -43.927251     -43.927251      0.16743919   
   2055000   185.27324     -43.616011     -43.783651     -43.783651      0.16763912   
   2056000   175.96949     -43.864024     -44.023245     -44.023245      0.15922089   
   2057000   172.43413     -43.788337     -43.944359     -43.944359      0.15602203   
   2058000   168.13071     -43.861096     -44.013224     -44.013224      0.1521282    
   2059000   170.4108      -43.663855     -43.818046     -43.818046      0.15419127   
   2060000   160.15481     -43.787569     -43.93248      -43.93248       0.14491144   
   2061000   157.33656     -43.882058     -44.024419     -44.024419      0.14236143   
   2062000   147.63577     -43.784985     -43.918569     -43.918569      0.13358394   
   2063000   149.88825     -43.83297      -43.968592     -43.968592      0.13562204   
   2064000   135.10444     -43.751937     -43.874183     -43.874183      0.12224534   
   2065000   137.53656     -43.787329     -43.911775     -43.911775      0.12444597   
   2066000   131.34606     -43.786338     -43.905183     -43.905183      0.11884467   
   2067000   128.73155     -43.685917     -43.802396     -43.802396      0.11647901   
   2068000   128.6622      -43.718366     -43.834782     -43.834782      0.11641626   
   2069000   124.92759     -43.854462     -43.967499     -43.967499      0.11303711   
   2070000   116.57772     -43.859844     -43.965326     -43.965326      0.10548197   
   2071000   109.84895     -43.902422     -44.001816     -44.001816      0.09939364   
   2072000   114.4512      -43.811456     -43.915014     -43.915014      0.10355785   
   2073000   106.65851     -43.863423     -43.95993      -43.95993       0.096506861  
   2074000   105.36595     -43.93268      -44.028017     -44.028017      0.095337324  
   2075000   100.85711     -43.941058     -44.032315     -44.032315      0.091257634  
   2076000   97.476628     -43.917557     -44.005756     -44.005756      0.088198901  
   2077000   93.329044     -43.897361     -43.981808     -43.981808      0.084446081  
   2078000   89.957498     -43.910055     -43.99145      -43.99145       0.081395435  
   2079000   81.433754     -43.888779     -43.962462     -43.962462      0.073682972  
   2080000   77.575546     -43.888033     -43.958225     -43.958225      0.070191985  
   2081000   80.61047      -43.9316       -44.004538     -44.004538      0.072938048  
   2082000   74.256899     -43.962475     -44.029664     -44.029664      0.067189203  
   2083000   69.239232     -44.006024     -44.068674     -44.068674      0.062649112  
   2084000   66.75038      -43.97912      -44.039517     -44.039517      0.060397147  
   2085000   59.376562     -43.969818     -44.023543     -44.023543      0.053725161  
   2086000   56.470704     -43.979912     -44.031008     -44.031008      0.05109588   
   2087000   50.863425     -44.00674      -44.052762     -44.052762      0.046022296  
   2088000   47.389367     -44.013116     -44.055995     -44.055995      0.042878895  
   2089000   45.289073     -44.004023     -44.045001     -44.045001      0.040978505  
   2090000   40.290352     -43.997272     -44.033727     -44.033727      0.036455557  
   2091000   35.103707     -43.99363      -44.025393     -44.025393      0.031762572  
   2092000   32.072835     -44.003897     -44.032918     -44.032918      0.029020175  
   2093000   28.664831     -44.020497     -44.046434     -44.046434      0.025936541  
   2094000   24.077309     -44.044748     -44.066533     -44.066533      0.021785655  
   2095000   20.279156     -44.057857     -44.076206     -44.076206      0.018349006  
   2096000   16.01857      -44.067046     -44.08154      -44.08154       0.014493939  
   2097000   12.344155     -44.068477     -44.079646     -44.079646      0.011169251  
   2098000   8.1986111     -44.065362     -44.07278      -44.07278       0.0074182757 
   2099000   4.3017975     -44.074984     -44.078876     -44.078876      0.0038923568 
   2100000   0.17263806    -44.084437     -44.084594     -44.084594      0.00015620654
   2100030   0.051061485   -44.084596     -44.084642     -44.084642      4.6201505e-05
Loop time of 32.6737 on 1 procs for 1000000 steps with 8 atoms

Performance: 264.433 ns/day, 0.091 hours/ns, 30605.616 timesteps/s, 244.845 katom-step/s
99.3% CPU use with 1 MPI tasks x 1 OpenMP threads

MPI task timing breakdown:
Section |  min time  |  avg time  |  max time  |%varavg| %total
---------------------------------------------------------------
Pair    | 26.557     | 26.557     | 26.557     |   0.0 | 81.28
Neigh   | 1.6857     | 1.6857     | 1.6857     |   0.0 |  5.16
Comm    | 1.198      | 1.198      | 1.198      |   0.0 |  3.67
Output  | 0.26742    | 0.26742    | 0.26742    |   0.0 |  0.82
Modify  | 2.285      | 2.285      | 2.285      |   0.0 |  6.99
Other   |            | 0.6806     |            |       |  2.08

Nlocal:              8 ave           8 max           8 min
Histogram: 1 0 0 0 0 0 0 0 0 0
Nghost:            107 ave         107 max         107 min
Histogram: 1 0 0 0 0 0 0 0 0 0
Neighs:              0 ave           0 max           0 min
Histogram: 1 0 0 0 0 0 0 0 0 0
FullNghs:           56 ave          56 max          56 min
Histogram: 1 0 0 0 0 0 0 0 0 0

Total # of neighbors = 56
Ave neighs/atom = 7
Neighbor list builds = 18092
Dangerous builds = 0
write_restart 	./endconf/endconf*3.restart
System init for write_restart ...

Total wall time: 0:01:04
