LAMMPS (7 Feb 2024 - Update 1)
OMP_NUM_THREADS environment is not set. Defaulting to 1 thread. (src/comm.cpp:98)
  using 1 OpenMP thread(s) per MPI task
#============Initialization=================
units 			metal
atom_style 		atomic
boundary 		p p p

############################################
#              CLI Variables               #
############################################
variable 		seed index 200093          #
variable 		N index 8                  #
variable 		iter index 1000000         #
variable 		iterther index 100000      #
variable 		iexport index 1000         #
variable 		tempchauf index 3000       #
variable 		Tdamp index 0.001          #
variable 		timestep index 0.0001      #
variable 		box_size index 10		   #
############################################
############################################

#=========Simulation box definition=========
lattice 		sc 1.0
Lattice spacing in x,y,z = 1 1 1
region 			bigbox block 0 ${box_size} 0 ${box_size} 0 ${box_size}
region 			bigbox block 0 10 0 ${box_size} 0 ${box_size}
region 			bigbox block 0 10 0 10 0 ${box_size}
region 			bigbox block 0 10 0 10 0 10
create_box 		1 bigbox
Created orthogonal box = (0 0 0) to (10 10 10)
  1 by 1 by 1 MPI processor grid

#==================Atoms====================
region 			safezone block 6 9 6 9 6 9 units box
create_atoms 	1 random ${N} ${seed} safezone
create_atoms 	1 random 8 ${seed} safezone
create_atoms 	1 random 8 200093 safezone
Created 8 atoms
  using lattice units in orthogonal box = (0 0 0) to (10 10 10)
  create_atoms CPU = 0.000 seconds
#labelmap 		atom 1 C
mass 			* 12.01



#==========Velocity initialization==========
velocity 		all create 0.0000001 1563967 rot yes dist gaussian

#======Pair style for atom interactions=============
pair_style 		rebo
pair_coeff 		* * CH.rebo C
Reading rebo potential file CH.rebo with DATE: 2018-7-3

#==============Neighbor selection===================
neighbor 		0.3 bin
neigh_modify 	every 1 delay 0 check yes


#=====================Timestep======================
timestep 		${timestep}
timestep 		0.0001

#===============Define dump command=================
dump 			1 all cfg 100000 ./dump/dump.tensile_*.cfg mass type xs ys zs vx vy vz id

#========System temperature printing info===========
thermo_style 	custom step temp etotal epair pe ke
thermo 			${iexport}
thermo 			1000



#====================CRC Cycle======================

#=============Condensation et chauffe===============
fix 			1 all nve
fix 			2 all temp/berendsen 0.0 ${tempchauf} ${Tdamp}
fix 			2 all temp/berendsen 0.0 3000 ${Tdamp}
fix 			2 all temp/berendsen 0.0 3000 0.001
fix             3 all momentum 1 linear 1 1 1 angular rescale

run 			${iter}
run 			1000000
Neighbor list info ...
  update: every = 1 steps, delay = 0 steps, check = yes
  max neighbors/atom: 2000, page size: 100000
  master list distance cutoff = 6.3
  ghost atom cutoff = 6.3
  binsize = 3.15, bins = 4 4 4
  1 neighbor lists, perpetual/occasional/extra = 1 0 0
  (1) pair rebo, perpetual
      attributes: full, newton on, ghost
      pair build: full/bin/ghost
      stencil: full/ghost/bin/3d
      bin: standard
Per MPI rank memory allocation (min/avg/max) = 3.878 | 3.878 | 3.878 Mbytes
   Step          Temp          TotEng         E_pair         PotEng         KinEng    
         0   1e-07          1302.6777      1302.6777      1302.6777      9.0482101e-11
      1000   27.667195     -30.757105     -30.782138     -30.782138      0.025033859  
      2000   15.253663     -32.649349     -32.663151     -32.663151      0.013801834  
      3000   12.287671     -33.158366     -33.169484     -33.169484      0.011118143  
      4000   13.632567     -33.406968     -33.419303     -33.419303      0.012335033  
      5000   15.231233     -33.490849     -33.504631     -33.504631      0.01378154   
      6000   17.588491     -33.490601     -33.506516     -33.506516      0.015914436  
      7000   20.912472     -33.426426     -33.445348     -33.445348      0.018922044  
      8000   24.85762      -33.470503     -33.492995     -33.492995      0.022491697  
      9000   26.540496     -33.470251     -33.494266     -33.494266      0.024014399  
     10000   28.653989     -33.398659     -33.424586     -33.424586      0.025926732  
     11000   33.277368     -33.483837     -33.513947     -33.513947      0.030110062  
     12000   36.883543     -33.421907     -33.45528      -33.45528       0.033373005  
     13000   39.626875     -33.431342     -33.467197     -33.467197      0.035855229  
     14000   39.69017      -33.424874     -33.460787     -33.460787      0.0359125    
     15000   47.36486      -33.388558     -33.431415     -33.431415      0.04285672   
     16000   48.437059     -33.454879     -33.498706     -33.498706      0.043826869  
     17000   48.07706      -33.336301     -33.379803     -33.379803      0.043501134  
     18000   54.736543     -33.36388      -33.413406     -33.413406      0.049526775  
     19000   56.782352     -33.461918     -33.513296     -33.513296      0.051377865  
     20000   59.48576      -33.360318     -33.414142     -33.414142      0.053823965  
     21000   66.406905     -33.360333     -33.420419     -33.420419      0.060086363  
     22000   64.038174     -33.388041     -33.445984     -33.445984      0.057943085  
     23000   67.463549     -33.34831      -33.409353     -33.409353      0.061042437  
     24000   72.327015     -33.446438     -33.511881     -33.511881      0.065443003  
     25000   78.231645     -33.216952     -33.287738     -33.287738      0.070785636  
     26000   78.351095     -33.370236     -33.44113      -33.44113       0.070893718  
     27000   77.150834     -33.363617     -33.433425     -33.433425      0.069807696  
     28000   85.531247     -33.291329     -33.36872      -33.36872       0.07739047   
     29000   88.676326     -33.413944     -33.49418      -33.49418       0.080236204  
     30000   86.934321     -33.248948     -33.327608     -33.327608      0.07866      
     31000   96.649761     -33.227488     -33.314939     -33.314939      0.087450735  
     32000   94.146687     -33.401094     -33.48628      -33.48628       0.085185901  
     33000   99.269231     -33.309687     -33.399508     -33.399508      0.089820886  
     34000   104.74319     -33.361343     -33.456117     -33.456117      0.094773841  
     35000   102.81036     -33.216761     -33.309786     -33.309786      0.093024974  
     36000   107.13046     -33.275587     -33.372521     -33.372521      0.096933891  
     37000   108.52655     -33.376683     -33.47488      -33.47488       0.098197107  
     38000   117.54472     -33.199464     -33.305821     -33.305821      0.10635693   
     39000   118.07548     -33.330911     -33.437748     -33.437748      0.10683717   
     40000   114.51946     -33.177366     -33.280985     -33.280985      0.10361961   
     41000   120.94226     -33.241202     -33.350633     -33.350633      0.1094311    
     42000   125.68768     -33.37553      -33.489255     -33.489255      0.11372486   
     43000   131.72862     -33.15049      -33.26968      -33.26968       0.11919082   
     44000   136.34005     -33.215679     -33.339042     -33.339042      0.12336334   
     45000   128.8752      -33.273493     -33.390102     -33.390102      0.11660899   
     46000   131.89701     -33.177244     -33.296587     -33.296587      0.11934319   
     47000   142.52994     -33.366126     -33.49509      -33.49509       0.12896408   
     48000   145.63587     -33.151776     -33.28355      -33.28355       0.13177439   
     49000   151.47804     -33.159413     -33.296474     -33.296474      0.13706052   
     50000   142.32532     -33.222257     -33.351036     -33.351036      0.12877894   
     51000   154.98625     -33.245921     -33.386156     -33.386156      0.14023481   
     52000   160.03403     -33.323546     -33.468348     -33.468348      0.14480216   
     53000   162.73976     -32.908561     -33.055812     -33.055812      0.14725035   
     54000   160.46403     -33.202281     -33.347473     -33.347473      0.14519123   
     55000   161.90198     -33.259487     -33.405979     -33.405979      0.14649232   
     56000   175.71262     -38.638586     -38.797575     -38.797575      0.15898847   
     57000   173.58998     -39.319952     -39.47702      -39.47702       0.15706786   
     58000   172.83554     -39.444699     -39.601085     -39.601085      0.15638523   
     59000   175.73721     -39.182866     -39.341877     -39.341877      0.15901072   
     60000   182.07378     -39.007456     -39.172201     -39.172201      0.16474418   
     61000   184.25585     -39.388846     -39.555565     -39.555565      0.16671856   
     62000   181.81062     -39.335222     -39.499728     -39.499728      0.16450607   
     63000   192.16971     -39.050871     -39.224751     -39.224751      0.17387919   
     64000   188.8707      -38.909394     -39.080288     -39.080288      0.17089418   
     65000   199.17082     -39.318989     -39.499203     -39.499203      0.18021394   
     66000   195.46966     -39.388098     -39.564963     -39.564963      0.17686506   
     67000   198.31892     -39.07891      -39.258353     -39.258353      0.17944312   
     68000   206.68791     -39.224284     -39.4113       -39.4113        0.18701557   
     69000   204.96535     -39.379199     -39.564656     -39.564656      0.18545696   
     70000   203.49762     -39.06397      -39.248099     -39.248099      0.18412893   
     71000   218.0177      -38.83931      -39.036577     -39.036577      0.19726699   
     72000   215.55014     -39.208067     -39.403102     -39.403102      0.1950343    
     73000   217.89429     -39.379995     -39.57715      -39.57715       0.19715533   
     74000   219.49011     -39.05072      -39.24932      -39.24932       0.19859927   
     75000   231.42826     -38.628062     -38.837463     -38.837463      0.20940116   
     76000   228.55347     -39.369335     -39.576135     -39.576135      0.20679998   
     77000   220.79358     -39.151075     -39.350854     -39.350854      0.19977867   
     78000   243.82322     -39.098978     -39.319594     -39.319594      0.22061638   
     79000   242.39896     -39.190868     -39.410196     -39.410196      0.21932767   
     80000   234.28125     -39.180994     -39.392976     -39.392976      0.2119826    
     81000   248.58239     -38.8342       -39.059123     -39.059123      0.22492257   
     82000   244.3048      -38.997802     -39.218854     -39.218854      0.22105212   
     83000   260.62448     -38.630113     -38.865931     -38.865931      0.2358185    
     84000   248.71706     -38.925295     -39.15034      -39.15034       0.22504442   
     85000   260.53245     -39.056439     -39.292174     -39.292174      0.23573524   
     86000   263.5744      -39.300618     -39.539106     -39.539106      0.23848766   
     87000   257.79326     -39.027317     -39.260574     -39.260574      0.23325676   
     88000   264.08097     -38.992874     -39.23182      -39.23182       0.23894601   
     89000   269.14035     -39.316942     -39.560466     -39.560466      0.24352384   
     90000   252.08126     -38.955991     -39.184079     -39.184079      0.22808842   
     91000   275.47165     -38.935338     -39.184591     -39.184591      0.24925254   
     92000   263.30472     -38.653116     -38.89136      -38.89136       0.23824365   
     93000   284.81798     -39.155658     -39.413368     -39.413368      0.2577093    
     94000   274.87771     -39.24948      -39.498195     -39.498195      0.24871513   
     95000   277.75667     -38.887668     -39.138988     -39.138988      0.25132007   
     96000   291.97773     -39.060116     -39.324303     -39.324303      0.26418759   
     97000   286.33054     -39.238703     -39.497781     -39.497781      0.25907789   
     98000   287.53012     -38.818439     -39.078602     -39.078602      0.2601633    
     99000   300.34261     -38.379488     -38.651245     -38.651245      0.27175631   
    100000   296.93767     -38.934435     -39.20311      -39.20311       0.26867544   
    101000   296.35628     -38.57584      -38.843989     -38.843989      0.26814939   
    102000   309.65185     -39.02436      -39.304539     -39.304539      0.2801795    
    103000   305.04409     -39.243883     -39.519893     -39.519893      0.2760103    
    104000   302.48321     -38.971225     -39.244918     -39.244918      0.27369316   
    105000   322.44898     -39.041706     -39.333465     -39.333465      0.29175861   
    106000   316.14698     -39.196055     -39.482111     -39.482111      0.28605644   
    107000   308.87937     -38.588755     -38.868235     -38.868235      0.27948055   
    108000   337.52223     -38.64732      -38.952717     -38.952717      0.3053972    
    109000   325.73536     -39.123372     -39.418104     -39.418104      0.2947322    
    110000   323.90995     -39.046658     -39.339739     -39.339739      0.29308053   
    111000   335.90737     -38.913084     -39.21702      -39.21702       0.30393604   
    112000   331.90043     -39.241917     -39.542227     -39.542227      0.30031048   
    113000   335.69673     -38.922099     -39.225844     -39.225844      0.30374546   
    114000   352.02462     -39.050007     -39.368526     -39.368526      0.31851927   
    115000   347.71595     -39.018395     -39.333015     -39.333015      0.3146207    
    116000   331.63222     -38.660553     -38.96062      -38.96062       0.3000678    
    117000   353.24111     -38.897533     -39.217153     -39.217153      0.31961998   
    118000   354.21762     -39.154612     -39.475116     -39.475116      0.32050355   
    119000   344.57034     -38.592368     -38.904142     -38.904142      0.31177449   
    120000   354.61522     -38.826134     -39.146998     -39.146998      0.3208633    
    121000   380.09263     -38.768745     -39.112661     -39.112661      0.3439158    
    122000   372.74732     -39.167676     -39.504945     -39.504945      0.3372696    
    123000   357.65446     -38.66509      -38.988703     -38.988703      0.32361327   
    124000   388.89755     -38.709821     -39.061704     -39.061704      0.35188268   
    125000   367.5082      -39.148706     -39.481235     -39.481235      0.33252914   
    126000   385.67369     -38.736912     -39.085877     -39.085877      0.34896566   
    127000   378.76808     -38.691519     -39.034237     -39.034237      0.34271732   
    128000   389.17505     -38.502679     -38.854812     -38.854812      0.35213376   
    129000   392.13256     -39.09304      -39.44785      -39.44785       0.35480978   
    130000   378.49949     -38.982721     -39.325196     -39.325196      0.34247429   
    131000   392.59735     -38.866715     -39.221945     -39.221945      0.35523034   
    132000   396.76543     -39.17301      -39.532012     -39.532012      0.3590017    
    133000   384.79        -38.715934     -39.0641       -39.0641        0.34816608   
    134000   404.42216     -39.101099     -39.467029     -39.467029      0.36592967   
    135000   402.50551     -39.005958     -39.370153     -39.370153      0.36419544   
    136000   430.76052     -38.106046     -38.495808     -38.495808      0.38976117   
    137000   418.59354     -38.965513     -39.344265     -39.344265      0.37875223   
    138000   411.09527     -39.117504     -39.489471     -39.489471      0.37196764   
    139000   438.82023     -38.586391     -38.983444     -38.983444      0.39705376   
    140000   416.75182     -38.804256     -39.181342     -39.181342      0.37708581   
    141000   415.71678     -39.061184     -39.437334     -39.437334      0.37614928   
    142000   415.94885     -38.813729     -39.190088     -39.190088      0.37635926   
    143000   434.55178     -39.067998     -39.46119      -39.46119       0.39319158   
    144000   430.67493     -38.869005     -39.258688     -39.258688      0.38968373   
    145000   404.6551      -38.114363     -38.480503     -38.480503      0.36614044   
    146000   445.05975     -38.86936      -39.272059     -39.272059      0.40269942   
    147000   463.88513     -38.801779     -39.221512     -39.221512      0.41973301   
    148000   446.16985     -38.823346     -39.22705      -39.22705       0.40370386   
    149000   458.97905     -38.668884     -39.084178     -39.084178      0.41529389   
    150000   450.53761     -39.137717     -39.545373     -39.545373      0.4076559    
    151000   425.74234     -38.368284     -38.753505     -38.753505      0.38522062   
    152000   469.06735     -38.884119     -39.308541     -39.308541      0.424422     
    153000   461.49896     -38.912971     -39.330545     -39.330545      0.41757395   
    154000   476.231       -38.735086     -39.16599      -39.16599       0.43090382   
    155000   471.415       -38.910056     -39.336602     -39.336602      0.4265462    
    156000   473.67299     -38.931114     -39.359703     -39.359703      0.42858928   
    157000   431.3505      -38.114099     -38.504394     -38.504394      0.390295     
    158000   488.40918     -38.515131     -38.957054     -38.957054      0.44192289   
    159000   478.7377      -38.952092     -39.385264     -39.385264      0.43317193   
    160000   476.82975     -38.873682     -39.305128     -39.305128      0.43144557   
    161000   461.86616     -38.167518     -38.585424     -38.585424      0.41790621   
    162000   499.92531     -38.817262     -39.269605     -39.269605      0.45234292   
    163000   482.60235     -38.892932     -39.329601     -39.329601      0.43666875   
    164000   515.74413     -38.180238     -38.646895     -38.646895      0.46665613   
    165000   496.66975     -38.893732     -39.343129     -39.343129      0.44939723   
    166000   487.71107     -38.840555     -39.281846     -39.281846      0.44129123   
    167000   503.75706     -38.683476     -39.139286     -39.139286      0.45580997   
    168000   484.87439     -38.377755     -38.816479     -38.816479      0.43872454   
    169000   509.43332     -38.99996      -39.460906     -39.460906      0.46094597   
    170000   492.42419     -38.244433     -38.689989     -38.689989      0.44555575   
    171000   519.9651      -38.417774     -38.88825      -38.88825       0.47047535   
    172000   514.08407     -38.948562     -39.413716     -39.413716      0.46515407   
    173000   529.03815     -38.63264      -39.111325     -39.111325      0.47868484   
    174000   497.18589     -38.38839      -38.838254     -38.838254      0.44986424   
    175000   541.54342     -38.170386     -38.660386     -38.660386      0.48999987   
    176000   528.14832     -38.993457     -39.471336     -39.471336      0.4778797    
    177000   526.44025     -38.473959     -38.950294     -38.950294      0.4763342    
    178000   540.83272     -38.717148     -39.206505     -39.206505      0.48935681   
    179000   537.95284     -38.91958      -39.406331     -39.406331      0.48675104   
    180000   532.38893     -38.69552      -39.177237     -39.177237      0.48171669   
    181000   541.64852     -38.803131     -39.293226     -39.293226      0.49009497   
    182000   538.48073     -38.689059     -39.176288     -39.176288      0.48722868   
    183000   542.30007     -37.575664     -38.066348     -38.066348      0.4906845    
    184000   561.02754     -38.870612     -39.378241     -39.378241      0.5076295    
    185000   544.83586     -38.694797     -39.187776     -39.187776      0.49297894   
    186000   571.437       -38.106154     -38.623202     -38.623202      0.51704821   
    187000   542.22935     -38.578563     -39.069184     -39.069184      0.49062051   
    188000   587.87957     -38.796072     -39.327998     -39.327998      0.53192579   
    189000   558.61865     -38.380306     -38.885756     -38.885756      0.5054499    
    190000   549.96993     -38.54879      -39.046414     -39.046414      0.49762435   
    191000   582.74982     -38.439976     -38.967261     -38.967261      0.52728428   
    192000   585.5033      -38.362168     -38.891944     -38.891944      0.52977569   
    193000   572.98677     -38.552537     -39.070988     -39.070988      0.51845047   
    194000   577.88306     -38.202408     -38.725289     -38.725289      0.52288073   
    195000   579.06822     -38.654468     -39.178421     -39.178421      0.5239531    
    196000   599.38423     -38.29657      -38.838905     -38.838905      0.54233544   
    197000   569.37688     -38.641633     -39.156817     -39.156817      0.51518416   
    198000   627.69961     -38.100424     -38.66838      -38.66838       0.5679558    
    199000   594.33573     -38.93665      -39.474418     -39.474418      0.53776746   
    200000   552.94092     -38.114597     -38.61491      -38.61491       0.50031256   
    201000   604.88618     -38.508968     -39.056281     -39.056281      0.54731372   
    202000   608.18662     -38.765684     -39.315984     -39.315984      0.55030004   
    203000   594.16277     -38.228692     -38.766303     -38.766303      0.53761096   
    204000   634.57722     -38.2397       -38.813878     -38.813878      0.5741788    
    205000   635.3125      -38.553349     -39.128193     -39.128193      0.5748441    
    206000   591.59668     -38.644216     -39.179505     -39.179505      0.53528911   
    207000   628.45095     -38.282716     -38.851352     -38.851352      0.56863562   
    208000   618.81586     -38.30829      -38.868208     -38.868208      0.5599176    
    209000   615.98237     -38.752309     -39.309662     -39.309662      0.5573538    
    210000   609.87038     -38.16795      -38.719773     -38.719773      0.55182353   
    211000   631.56043     -38.394091     -38.96554      -38.96554       0.57144915   
    212000   638.84133     -38.247393     -38.82543      -38.82543       0.57803706   
    213000   607.8922      -38.65688      -39.206913     -39.206913      0.55003364   
    214000   635.89543     -38.230572     -38.805943     -38.805943      0.57537155   
    215000   612.67489     -38.491877     -39.046238     -39.046238      0.55436112   
    216000   639.78282     -38.787909     -39.366798     -39.366798      0.57888894   
    217000   650.23976     -38.505691     -39.094041     -39.094041      0.5883506    
    218000   670.34625     -38.733846     -39.340389     -39.340389      0.60654337   
    219000   672.49344     -38.510247     -39.118733     -39.118733      0.6084862    
    220000   689.93556     -37.350689     -37.974957     -37.974957      0.6242682    
    221000   673.44448     -38.751497     -39.360843     -39.360843      0.60934672   
    222000   669.7307      -38.268133     -38.874119     -38.874119      0.60598641   
    223000   697.94168     -37.932754     -38.564267     -38.564267      0.6315123    
    224000   656.8987      -38.216581     -38.810956     -38.810956      0.59437575   
    225000   717.17076     -37.760898     -38.409809     -38.409809      0.64891118   
    226000   678.22284     -38.614652     -39.228322     -39.228322      0.61367028   
    227000   682.95        -38.444848     -39.062795     -39.062795      0.61794751   
    228000   669.39073     -38.360478     -38.966157     -38.966157      0.6056788    
    229000   710.96394     -38.667114     -39.310409     -39.310409      0.64329511   
    230000   691.09719     -37.926742     -38.552061     -38.552061      0.62531926   
    231000   684.75205     -38.131659     -38.751237     -38.751237      0.61957804   
    232000   680.20318     -38.296203     -38.911666     -38.911666      0.61546213   
    233000   719.54194     -38.704766     -39.355823     -39.355823      0.65105667   
    234000   653.61928     -37.626313     -38.217721     -38.217721      0.59140846   
    235000   700.42487     -38.312591     -38.94635      -38.94635       0.63375914   
    236000   720.28073     -38.796215     -39.44794      -39.44794       0.65172514   
    237000   722.27599     -38.511328     -39.164858     -39.164858      0.6535305    
    238000   695.5911      -38.685079     -39.314465     -39.314465      0.62938544   
    239000   711.63033     -38.12285      -38.766748     -38.766748      0.64389808   
    240000   712.59504     -38.581371     -39.226142     -39.226142      0.64477097   
    241000   737.42266     -38.44339      -39.110625     -39.110625      0.66723552   
    242000   705.33485     -38.485412     -39.123614     -39.123614      0.63820179   
    243000   731.81913     -38.575285     -39.23745      -39.23745       0.66216532   
    244000   714.09694     -38.672242     -39.318372     -39.318372      0.64612991   
    245000   730.24459     -38.751683     -39.412424     -39.412424      0.66074065   
    246000   749.02067     -38.425992     -39.103721     -39.103721      0.67772965   
    247000   738.58074     -38.689157     -39.357441     -39.357441      0.66828337   
    248000   742.37497     -38.33777      -39.009486     -39.009486      0.67171648   
    249000   760.57399     -38.859903     -39.548086     -39.548086      0.68818333   
    250000   755.25986     -38.133658     -38.817033     -38.817033      0.683375     
    251000   758.38689     -38.660827     -39.347031     -39.347031      0.6862044    
    252000   770.13686     -38.260207     -38.957043     -38.957043      0.69683602   
    253000   761.42824     -38.735866     -39.424823     -39.424823      0.68895627   
    254000   770.25033     -37.89026      -38.587198     -38.587198      0.69693868   
    255000   773.42944     -38.476448     -39.176264     -39.176264      0.69981521   
    256000   770.73682     -38.367184     -39.064563     -39.064563      0.69737888   
    257000   795.25345     -38.52732      -39.246882     -39.246882      0.71956203   
    258000   788.03079     -38.05212      -38.765147     -38.765147      0.71302682   
    259000   777.27455     -38.015182     -38.718477     -38.718477      0.70329434   
    260000   756.62831     -38.137241     -38.821855     -38.821855      0.6846132    
    261000   783.77733     -38.504696     -39.213874     -39.213874      0.7091782    
    262000   794.09508     -37.707175     -38.425689     -38.425689      0.71851391   
    263000   765.70875     -38.233817     -38.926646     -38.926646      0.69282937   
    264000   832.72996     -37.419148     -38.17262      -38.17262       0.75347157   
    265000   791.98717     -38.223113     -38.939719     -38.939719      0.71660664   
    266000   788.51409     -37.535335     -38.248799     -38.248799      0.71346412   
    267000   803.99085     -38.24748      -38.974948     -38.974948      0.72746782   
    268000   772.62803     -37.891332     -38.590423     -38.590423      0.69909008   
    269000   805.12827     -38.441924     -39.170421     -39.170421      0.72849697   
    270000   778.77742     -38.07887      -38.783524     -38.783524      0.70465418   
    271000   829.35833     -38.410818     -39.161239     -39.161239      0.75042085   
    272000   794.79868     -38.45644      -39.175591     -39.175591      0.71915055   
    273000   803.17627     -38.379061     -39.105792     -39.105792      0.72673077   
    274000   781.28832     -38.262138     -38.969064     -38.969064      0.70692609   
    275000   830.43366     -38.227914     -38.979308     -38.979308      0.75139383   
    276000   798.23408     -38.111971     -38.83423      -38.83423       0.72225897   
    277000   821.83241     -38.533847     -39.277458     -39.277458      0.74361124   
    278000   839.07839     -38.060534     -38.819749     -38.819749      0.75921576   
    279000   835.14933     -38.680639     -39.436299     -39.436299      0.75566066   
    280000   847.5847      -38.318251     -39.085164     -39.085164      0.76691245   
    281000   844.68251     -38.591838     -39.356125     -39.356125      0.76428649   
    282000   844.41693     -38.438658     -39.202704     -39.202704      0.76404618   
    283000   852.86447     -38.493616     -39.265305     -39.265305      0.7716897    
    284000   848.34477     -38.569258     -39.336858     -39.336858      0.76760018   
    285000   831.70443     -38.322453     -39.074997     -39.074997      0.75254364   
    286000   852.1233      -38.697924     -39.468943     -39.468943      0.77101907   
    287000   862.591       -38.550782     -39.331272     -39.331272      0.78049047   
    288000   867.8033      -38.355929     -39.141136     -39.141136      0.78520666   
    289000   870.68188     -38.543508     -39.331319     -39.331319      0.78781126   
    290000   881.28584     -38.103413     -38.900819     -38.900819      0.79740595   
    291000   844.49302     -38.639497     -39.403612     -39.403612      0.76411504   
    292000   880.42145     -37.733742     -38.530365     -38.530365      0.79662383   
    293000   893.6985      -38.487149     -39.295786     -39.295786      0.80863719   
    294000   848.64721     -37.513486     -38.281359     -38.281359      0.76787383   
    295000   896.74105     -38.100738     -38.912129     -38.912129      0.81139015   
    296000   850.03941     -38.127737     -38.89687      -38.89687       0.76913352   
    297000   893.10182     -37.342475     -38.150572     -38.150572      0.8080973    
    298000   857.81869     -38.32406      -39.100232     -39.100232      0.77617238   
    299000   839.13071     -37.779798     -38.539061     -38.539061      0.7592631    
    300000   933.87891     -38.00875      -38.853743     -38.853743      0.84499326   
    301000   927.64472     -37.917698     -38.75705      -38.75705       0.83935244   
    302000   907.66742     -38.241491     -39.062768     -39.062768      0.82127656   
    303000   894.92709     -37.274332     -38.084081     -38.084081      0.80974884   
    304000   886.04422     -38.372295     -39.174006     -39.174006      0.80171143   
    305000   903.8666      -37.54577      -38.363607     -38.363607      0.81783749   
    306000   952.56461     -38.054746     -38.916647     -38.916647      0.86190048   
    307000   909.72728     -37.87084      -38.693981     -38.693981      0.82314036   
    308000   941.74215     -37.961632     -38.81374      -38.81374       0.85210809   
    309000   862.14304     -37.701861     -38.481946     -38.481946      0.78008514   
    310000   958.34038     -37.964308     -38.831434     -38.831434      0.86712651   
    311000   926.38962     -38.273886     -39.112102     -39.112102      0.83821679   
    312000   978.56678     -37.180256     -38.065684     -38.065684      0.88542779   
    313000   937.88462     -38.17333      -39.021948     -39.021948      0.84861771   
    314000   961.37206     -37.59845      -38.46832      -38.46832       0.86986965   
    315000   916.71162     -38.399399     -39.228859     -39.228859      0.82945994   
    316000   963.32516     -36.752222     -37.623859     -37.623859      0.87163685   
    317000   952.46915     -38.263867     -39.125681     -39.125681      0.8618141    
    318000   930.47645     -38.144548     -38.986463     -38.986463      0.84191465   
    319000   1040.911      -40.206819     -41.148657     -41.148657      0.94183817   
    320000   999.12218     -40.383837     -41.287864     -41.287864      0.90402674   
    321000   1018.3033     -40.165385     -41.086768     -41.086768      0.92138222   
    322000   947.99035     -40.453619     -41.31138      -41.31138       0.85776159   
    323000   977.56396     -40.348037     -41.232557     -41.232557      0.88452041   
    324000   996.87947     -40.150775     -41.052773     -41.052773      0.9019975    
    325000   953.58971     -40.231211     -41.094039     -41.094039      0.86282801   
    326000   1136.0236     -39.740059     -40.767957     -40.767957      1.0278981    
    327000   972.49301     -40.221529     -41.101461     -41.101461      0.87993211   
    328000   1115.4424     -40.20004      -41.209316     -41.209316      1.0092757    
    329000   926.61701     -40.447659     -41.286082     -41.286082      0.83842254   
    330000   988.7631      -40.464045     -41.358698     -41.358698      0.89465363   
    331000   1018.5142     -40.269015     -41.190588     -41.190588      0.9215731    
    332000   1021.4814     -39.977738     -40.901996     -40.901996      0.92425786   
    333000   1029.0715     -40.206463     -41.137588     -41.137588      0.93112556   
    334000   965.18221     -40.23172      -41.105037     -41.105037      0.87331715   
    335000   983.95627     -40.085261     -40.975565     -40.975565      0.89030431   
    336000   1027.8384     -40.542915     -41.472925     -41.472925      0.93000978   
    337000   968.01876     -40.267572     -41.143456     -41.143456      0.87588372   
    338000   1006.5404     -40.096292     -41.007031     -41.007031      0.9107389    
    339000   975.09171     -40.017529     -40.899813     -40.899813      0.88228347   
    340000   1048.5984     -39.619212     -40.568006     -40.568006      0.94879391   
    341000   1044.8064     -39.998252     -40.943615     -40.943615      0.94536281   
    342000   1001.0598     -40.231773     -41.137553     -41.137553      0.90577996   
    343000   1085.2083     -40.268995     -41.250914     -41.250914      0.98191926   
    344000   1004.5648     -40.299608     -41.20856      -41.20856       0.90895136   
    345000   1042.9085     -40.449225     -41.39287      -41.39287       0.94364552   
    346000   968.67823     -40.040166     -40.916647     -40.916647      0.87648042   
    347000   951.28336     -39.982253     -40.842994     -40.842994      0.86074118   
    348000   1062.7999     -39.860493     -40.822137     -40.822137      0.9616437    
    349000   1056.6733     -38.936345     -39.892445     -39.892445      0.9561002    
    350000   1089.4919     -39.943875     -40.92967      -40.92967       0.98579516   
    351000   1213.0766     -39.534225     -40.631843     -40.631843      1.0976172    
    352000   1102.9845     -40.210752     -41.208755     -41.208755      0.99800359   
    353000   1072.8302     -40.395038     -41.365757     -41.365757      0.97071927   
    354000   1046.3059     -39.826838     -40.773558     -40.773558      0.9467196    
    355000   1033.087      -40.309237     -41.243996     -41.243996      0.9347588    
    356000   1064.1164     -39.668255     -40.63109      -40.63109       0.96283486   
    357000   972.43613     -39.707435     -40.587316     -40.587316      0.87988065   
    358000   1178.184      -40.035456     -41.101502     -41.101502      1.0660456    
    359000   1107.9053     -39.396292     -40.398748     -40.398748      1.002456     
    360000   1109.2938     -40.409206     -41.412918     -41.412918      1.0037123    
    361000   1098.3985     -40.484974     -41.478829     -41.478829      0.99385404   
    362000   991.26756     -40.096037     -40.992956     -40.992956      0.89691972   
    363000   1030.6221     -40.257481     -41.190009     -41.190009      0.93252856   
    364000   1092.8352     -39.823617     -40.812438     -40.812438      0.98882027   
    365000   1007.6798     -38.972965     -39.884735     -39.884735      0.91176988   
    366000   1099.2083     -40.545978     -41.540565     -41.540565      0.99458677   
    367000   1110.6137     -38.57276      -39.577667     -39.577667      1.0049067    
    368000   1118.9252     -40.506204     -41.518631     -41.518631      1.0124271    
    369000   1031.8034     -38.149975     -39.083572     -39.083572      0.93359743   
    370000   1111.4043     -40.651121     -41.656743     -41.656743      1.005622     
    371000   1055.2244     -38.500238     -39.455027     -39.455027      0.9547892    
    372000   1078.6611     -40.531626     -41.507621     -41.507621      0.97599521   
    373000   1235.47       -38.617412     -39.735291     -39.735291      1.1178792    
    374000   1088.3956     -40.218384     -41.203187     -41.203187      0.98480321   
    375000   1128.2646     -39.086092     -40.10697      -40.10697       1.0208775    
    376000   1146.0582     -39.592287     -40.629265     -40.629265      1.0369776    
    377000   1149.2982     -40.354445     -41.394354     -41.394354      1.0399092    
    378000   1137.7878     -39.551945     -40.581439     -40.581439      1.0294943    
    379000   1136.7778     -40.561302     -41.589883     -41.589883      1.0285804    
    380000   1097.6036     -39.400904     -40.394038     -40.394038      0.99313478   
    381000   1110.0202     -40.227587     -41.231957     -41.231957      1.0043696    
    382000   1167.4108     -39.910338     -40.966636     -40.966636      1.0562978    
    383000   1150.6908     -39.386209     -40.427378     -40.427378      1.0411692    
    384000   1186.1417     -39.757863     -40.831109     -40.831109      1.0732459    
    385000   1221.1453     -38.669944     -39.774862     -39.774862      1.104918     
    386000   1158.3175     -40.553779     -41.601849     -41.601849      1.04807      
    387000   1128.7454     -39.057039     -40.078352     -40.078352      1.0213126    
    388000   1130.1695     -40.472044     -41.494646     -41.494646      1.0226011    
    389000   1199.3909     -38.918589     -40.003823     -40.003823      1.0852341    
    390000   1166.3484     -40.202405     -41.257742     -41.257742      1.0553365    
    391000   1234.1122     -39.432095     -40.548745     -40.548745      1.1166507    
    392000   1137.3812     -39.33366      -40.362787     -40.362787      1.0291264    
    393000   1221.0082     -40.065974     -41.170768     -41.170768      1.1047939    
    394000   1228.3762     -38.537058     -39.648519     -39.648519      1.1114606    
    395000   1194.7503     -40.486422     -41.567457     -41.567457      1.0810352    
    396000   1286.2089     -39.689596     -40.853385     -40.853385      1.1637888    
    397000   1106.9751     -39.974276     -40.975891     -40.975891      1.0016144    
    398000   1197.5066     -39.419084     -40.502613     -40.502613      1.0835292    
    399000   1183.1394     -39.288349     -40.358878     -40.358878      1.0705294    
    400000   1222.0493     -39.974346     -41.080082     -41.080082      1.1057359    
    401000   1172.066      -38.819486     -39.879996     -39.879996      1.06051      
    402000   1194.4732     -40.50257      -41.583354     -41.583354      1.0807845    
    403000   1189.7453     -39.02924      -40.105747     -40.105747      1.0765066    
    404000   1265.7121     -40.348938     -41.494181     -41.494181      1.1452429    
    405000   1186.9637     -39.010811     -40.084801     -40.084801      1.0739897    
    406000   1197.3884     -39.567469     -40.650891     -40.650891      1.0834221    
    407000   1247.0889     -39.809633     -40.938025     -40.938025      1.1283923    
    408000   1198.065      -39.231302     -40.315336     -40.315336      1.0840344    
    409000   1240.4566     -39.761302     -40.883693     -40.883693      1.1223912    
    410000   1174.9425     -39.048098     -40.111211     -40.111211      1.0631127    
    411000   1221.0775     -40.409108     -41.513965     -41.513965      1.1048565    
    412000   1190.491      -38.251196     -39.328378     -39.328378      1.0771813    
    413000   1179.425      -40.175517     -41.242685     -41.242685      1.0671685    
    414000   1279.7324     -39.420968     -40.578897     -40.578897      1.1579288    
    415000   1265.2234     -39.511365     -40.656165     -40.656165      1.1448008    
    416000   1374.1198     -40.409639     -41.652972     -41.652972      1.2433325    
    417000   1179.2099     -38.97061      -40.037584     -40.037584      1.0669739    
    418000   1305.1161     -40.090387     -41.271284     -41.271284      1.1808964    
    419000   1212.2735     -39.577915     -40.674805     -40.674805      1.0968905    
    420000   1272.021      -39.640533     -40.791485     -40.791485      1.1509513    
    421000   1237.2631     -39.804805     -40.924307     -40.924307      1.1195016    
    422000   1310.9538     -39.252556     -40.438734     -40.438734      1.1861785    
    423000   1227.0551     -40.19413      -41.304396     -41.304396      1.1102652    
    424000   1221.0902     -39.525224     -40.630093     -40.630093      1.1048681    
    425000   1265.2837     -39.99738      -41.142236     -41.142236      1.1448552    
    426000   1296.2978     -39.540317     -40.713235     -40.713235      1.1729175    
    427000   1283.0227     -39.277687     -40.438593     -40.438593      1.1609059    
    428000   1237.0177     -39.850605     -40.969885     -40.969885      1.1192796    
    429000   1283.9127     -38.350964     -39.512675     -39.512675      1.1617112    
    430000   1336.1144     -40.21829      -41.427235     -41.427235      1.2089444    
    431000   1366.8976     -39.066043     -40.302841     -40.302841      1.2367977    
    432000   1246.7251     -40.05284      -41.180903     -41.180903      1.1280631    
    433000   1288.0809     -39.257337     -40.42282      -40.42282       1.1654827    
    434000   1249.3734     -39.384517     -40.514976     -40.514976      1.1304593    
    435000   1276.6919     -39.87125      -41.026427     -41.026427      1.1551777    
    436000   1219.6452     -38.922002     -40.025562     -40.025562      1.1035606    
    437000   1288.9872     -39.918131     -41.084434     -41.084434      1.1663027    
    438000   1391.7893     -38.741128     -40.000448     -40.000448      1.2593202    
    439000   1294.2683     -40.194568     -41.365649     -41.365649      1.1710812    
    440000   1186.7083     -38.205938     -39.279697     -39.279697      1.0737586    
    441000   1346.6129     -39.878584     -41.097027     -41.097027      1.2184436    
    442000   1403.7761     -38.301935     -39.572101     -39.572101      1.2701662    
    443000   1220.8551     -39.567756     -40.672412     -40.672412      1.1046554    
    444000   1387.6735     -39.934303     -41.189899     -41.189899      1.2555961    
    445000   1351.3855     -38.691573     -39.914335     -39.914335      1.222762     
    446000   1332.2105     -40.348593     -41.554005     -41.554005      1.2054121    
    447000   1271.3401     -38.70463      -39.854965     -39.854965      1.1503352    
    448000   1299.3264     -39.652505     -40.828163     -40.828163      1.1756578    
    449000   1395.3615     -38.037197     -39.29975      -39.29975       1.2625524    
    450000   1292.6248     -39.962793     -41.132387     -41.132387      1.1695941    
    451000   1375.6178     -39.470073     -40.714761     -40.714761      1.2446879    
    452000   1431.8155     -38.785787     -40.081324     -40.081324      1.2955367    
    453000   1404.2792     -40.177214     -41.447835     -41.447835      1.2706213    
    454000   1335.7631     -38.898355     -40.106982     -40.106982      1.2086265    
    455000   1370.9671     -40.185559     -41.426039     -41.426039      1.2404798    
    456000   1306.0133     -39.123352     -40.30506      -40.30506       1.1817083    
    457000   1353.481      -39.193565     -40.418223     -40.418223      1.224658     
    458000   1426.1312     -39.445818     -40.736212     -40.736212      1.2903935    
    459000   1420.5862     -38.521398     -39.806774     -39.806774      1.2853762    
    460000   1337.6862     -39.549138     -40.759504     -40.759504      1.2103666    
    461000   1373.3695     -38.871613     -40.114267     -40.114267      1.2426536    
    462000   1361.9955     -40.200024     -41.432387     -41.432387      1.2323622    
    463000   1285.9526     -38.392689     -39.556246     -39.556246      1.1635569    
    464000   1420.2354     -40.131839     -41.416898     -41.416898      1.2850588    
    465000   1366.8813     -37.1913       -38.428083     -38.428083      1.2367829    
    466000   1393.7358     -40.037102     -41.298184     -41.298184      1.2610815    
    467000   1404.0297     -38.149716     -39.420112     -39.420112      1.2703956    
    468000   1390.101      -39.805029     -41.062822     -41.062822      1.2577926    
    469000   1613.8255     -39.083109     -40.543332     -40.543332      1.4602233    
    470000   1542.16       -38.488258     -39.883637     -39.883637      1.3953788    
    471000   1452.6796     -39.90034      -41.214755     -41.214755      1.3144151    
    472000   1541.7181     -39.020687     -40.415666     -40.415666      1.394979     
    473000   1386.1964     -39.476407     -40.730667     -40.730667      1.2542596    
    474000   1484.5061     -39.181894     -40.525107     -40.525107      1.3432123    
    475000   1645.9487     -37.982708     -39.471997     -39.471997      1.4892889    
    476000   1397.962      -38.987125     -40.25203      -40.25203       1.2649054    
    477000   1407.9356     -38.604608     -39.878538     -39.878538      1.2739298    
    478000   1551.1903     -39.692293     -41.095843     -41.095843      1.4035496    
    479000   1357.2217     -38.482873     -39.710916     -39.710916      1.2280427    
    480000   1397.8567     -39.90847      -41.17328      -41.17328       1.2648101    
    481000   1598.8647     -39.372407     -40.819093     -40.819093      1.4466864    
    482000   1396.6842     -38.143055     -39.406804     -39.406804      1.2637492    
    483000   1384.6152     -39.858888     -41.111717     -41.111717      1.2528289    
    484000   1543.7745     -38.192433     -39.589272     -39.589272      1.3968396    
    485000   1466.3134     -39.755212     -41.081964     -41.081964      1.3267512    
    486000   1388.418      -38.717485     -39.973754     -39.973754      1.2562698    
    487000   1467.4671     -39.742677     -41.070472     -41.070472      1.3277951    
    488000   1457.5549     -38.790398     -40.109224     -40.109224      1.3188263    
    489000   1401.3288     -38.843743     -40.111694     -40.111694      1.2679517    
    490000   1506.5247     -39.462917     -40.826052     -40.826052      1.3631352    
    491000   1583.0988     -38.559951     -39.992373     -39.992373      1.4324211    
    492000   1566.9025     -39.753127     -41.170893     -41.170893      1.4177663    
    493000   1402.5664     -37.908543     -39.177615     -39.177615      1.2690716    
    494000   1493.3797     -40.298504     -41.649746     -41.649746      1.3512414    
    495000   1394.1592     -36.808875     -38.07034      -38.07034       1.2614646    
    496000   1444.0674     -40.136396     -41.443018     -41.443018      1.3066225    
    497000   1404.983      -37.541709     -38.812967     -38.812967      1.2712581    
    498000   1478.268      -39.724462     -41.06203      -41.06203       1.337568     
    499000   1433.892      -38.722799     -40.020215     -40.020215      1.2974156    
    500000   1506.693      -38.980807     -40.344095     -40.344095      1.3632875    
    501000   1528.0289     -39.182856     -40.565449     -40.565449      1.3825926    
    502000   1500.0017     -37.944329     -39.301562     -39.301562      1.357233     
    503000   1606.5119     -39.723622     -41.177227     -41.177227      1.4536058    
    504000   1463.1777     -38.355847     -39.679761     -39.679761      1.3239139    
    505000   1538.3016     -39.684932     -41.07682      -41.07682       1.3918876    
    506000   1444.6406     -37.644857     -38.951998     -38.951998      1.3071412    
    507000   1570.4116     -40.073176     -41.494118     -41.494118      1.4209414    
    508000   1515.3806     -36.505077     -37.876225     -37.876225      1.3711482    
    509000   1535.2997     -40.020571     -41.409743     -41.409743      1.3891714    
    510000   1561.8387     -36.808975     -38.222159     -38.222159      1.4131845    
    511000   1545.7701     -40.113844     -41.512489     -41.512489      1.3986453    
    512000   1602.7098     -37.263622     -38.713788     -38.713788      1.4501655    
    513000   1533.9525     -38.884675     -40.272627     -40.272627      1.3879525    
    514000   1699.1899     -39.265822     -40.803284     -40.803284      1.5374627    
    515000   1393.2535     -38.272169     -39.532814     -39.532814      1.2606451    
    516000   1548.0394     -39.743937     -41.144636     -41.144636      1.4006986    
    517000   1656.7913     -37.108037     -38.607136     -38.607136      1.4990996    
    518000   1531.1033     -39.996864     -41.382238     -41.382238      1.3853744    
    519000   1656.7562     -36.95674      -38.455807     -38.455807      1.4990678    
    520000   1581.7841     -39.639092     -41.070323     -41.070323      1.4312315    
    521000   1556.8522     -36.798475     -38.207147     -38.207147      1.4086726    
    522000   1562.1577     -39.842831     -41.256304     -41.256304      1.4134731    
    523000   1543.2656     -37.186756     -38.583136     -38.583136      1.3963791    
    524000   1551.0032     -39.792289     -41.19567      -41.19567       1.4033803    
    525000   1567.1478     -37.841759     -39.259747     -39.259747      1.4179883    
    526000   1500.2494     -38.574954     -39.932411     -39.932411      1.3574572    
    527000   1624.5613     -38.911191     -40.381128     -40.381128      1.4699372    
    528000   1599.5831     -38.482193     -39.92953      -39.92953       1.4473364    
    529000   1612.8363     -39.341817     -40.801145     -40.801145      1.4593282    
    530000   1730.6857     -37.278564     -38.844525     -38.844525      1.5659608    
    531000   1616.2959     -39.899593     -41.362052     -41.362052      1.4624585    
    532000   1646.3629     -36.854032     -38.343696     -38.343696      1.4896638    
    533000   1544.1074     -39.639411     -41.036552     -41.036552      1.3971409    
    534000   1627.571      -37.766444     -39.239105     -39.239105      1.4726604    
    535000   1535.6743     -39.375668     -40.765178     -40.765178      1.3895104    
    536000   1620.1628     -38.513824     -39.979782     -39.979782      1.4659573    
    537000   1580.2957     -38.923783     -40.353668     -40.353668      1.4298847    
    538000   1680.4756     -38.957159     -40.477689     -40.477689      1.5205296    
    539000   1620.7546     -38.779395     -40.245888     -40.245888      1.4664928    
    540000   1600.8525     -39.511403     -40.959888     -40.959888      1.448485     
    541000   1503.8573     -37.697829     -39.05855      -39.05855       1.3607217    
    542000   1650.5267     -39.598264     -41.091696     -41.091696      1.4934312    
    543000   1623.8233     -37.103469     -38.572738     -38.572738      1.4692695    
    544000   1580.2803     -40.172288     -41.602159     -41.602159      1.4298708    
    545000   1638.2457     -36.496815     -37.979134     -37.979134      1.4823191    
    546000   1654.2077     -39.862926     -41.359688     -41.359688      1.4967618    
    547000   1748.4773     -36.532255     -38.114314     -38.114314      1.582059     
    548000   1649.8356     -39.58561      -41.078416     -41.078416      1.492806     
    549000   1678.7064     -38.742806     -40.261734     -40.261734      1.5189288    
    550000   1631.0177     -39.146339     -40.622118     -40.622118      1.4757791    
    551000   1751.9407     -38.775314     -40.360507     -40.360507      1.5851927    
    552000   1566.5969     -38.597235     -40.014725     -40.014725      1.4174898    
    553000   1673.431      -39.370976     -40.885131     -40.885131      1.5141555    
    554000   1587.5412     -37.741958     -39.178399     -39.178399      1.4364406    
    555000   1682.349      -39.187041     -40.709266     -40.709266      1.5222247    
    556000   1481.5261     -37.711312     -39.051828     -39.051828      1.3405159    
    557000   1719.6614     -39.507101     -41.063087     -41.063087      1.5559858    
    558000   1598.9164     -38.293289     -39.740022     -39.740022      1.4467332    
    559000   1644.1787     -40.03893      -41.526618     -41.526618      1.4876874    
    560000   1759.2721     -37.3738       -38.965626     -38.965626      1.5918264    
    561000   1737.2708     -39.699233     -41.271152     -41.271152      1.5719192    
    562000   1740.6665     -38.127771     -39.702763     -39.702763      1.5749916    
    563000   1633.6072     -39.15796      -40.636082     -40.636082      1.4781221    
    564000   1650.8985     -39.01599      -40.509757     -40.509757      1.4937677    
    565000   1663.4801     -38.154049     -39.6592       -39.6592        1.5051518    
    566000   1712.3359     -39.668229     -41.217587     -41.217587      1.5493575    
    567000   1769.9569     -38.223842     -39.825336     -39.825336      1.6014942    
    568000   1572.6584     -39.149032     -40.572006     -40.572006      1.4229743    
    569000   1687.0891     -38.572277     -40.098791     -40.098791      1.5265137    
    570000   1588.7563     -37.881706     -39.319246     -39.319246      1.4375401    
    571000   1825.1892     -39.424536     -41.076005     -41.076005      1.6514695    
    572000   1634.0838     -36.822695     -38.301248     -38.301248      1.4785534    
    573000   1786.3766     -39.90959      -41.525942     -41.525942      1.6163511    
    574000   1582.913      -36.821267     -38.25352      -38.25352       1.4322529    
    575000   1772.482      -39.418455     -41.022234     -41.022234      1.603779     
    576000   1812.9072     -38.204669     -39.845025     -39.845025      1.6403566    
    577000   1630.7701     -38.814435     -40.28999      -40.28999       1.4755551    
    578000   1760.7246     -39.238306     -40.831447     -40.831447      1.5931406    
    579000   1610.0085     -37.190369     -38.647139     -38.647139      1.4567695    
    580000   1754.2623     -39.398213     -40.985506     -40.985506      1.5872934    
    581000   1589.4697     -36.762675     -38.20086      -38.20086       1.4381856    
    582000   1775.8456     -39.630722     -41.237545     -41.237545      1.6068224    
    583000   1888.4798     -36.3342       -38.042936     -38.042936      1.7087362    
    584000   1830.5445     -39.402737     -41.059052     -41.059052      1.6563151    
    585000   1848.4944     -37.377421     -39.049978     -39.049978      1.6725566    
    586000   1730.0778     -38.976386     -40.541797     -40.541797      1.5654107    
    587000   1919.7355     -38.687689     -40.424706     -40.424706      1.737017     
    588000   1756.4595     -38.304075     -39.893356     -39.893356      1.5892815    
    589000   1821.1955     -39.479916     -41.127772     -41.127772      1.647856     
    590000   1755.8993     -37.908141     -39.496916     -39.496916      1.5887746    
    591000   1744.3314     -39.235037     -40.813345     -40.813345      1.5783077    
    592000   1813.3944     -37.217357     -38.858154     -38.858154      1.6407974    
    593000   1825.9545     -39.186456     -40.838618     -40.838618      1.652162     
    594000   1890.3125     -37.582379     -39.292773     -39.292773      1.7103945    
    595000   1706.0834     -38.200083     -39.743783     -39.743783      1.5437001    
    596000   1786.455      -38.431182     -40.047604     -40.047604      1.6164221    
    597000   1653.1607     -38.052347     -39.548161     -39.548161      1.4958146    
    598000   1890.7189     -39.494545     -41.205307     -41.205307      1.7107622    
    599000   1840.1038     -37.506154     -39.171118     -39.171118      1.6649646    
    600000   1610.9135     -38.900426     -40.358014     -40.358014      1.4575884    
    601000   1736.7214     -37.255542     -38.826964     -38.826964      1.571422     
    602000   1785.8101     -37.795731     -39.41157      -39.41157       1.6158385    
    603000   1820.5729     -38.96572      -40.613013     -40.613013      1.6472926    
    604000   1629.3662     -37.659577     -39.133862     -39.133862      1.4742847    
    605000   1762.1947     -38.712041     -40.306512     -40.306512      1.5944708    
    606000   1851.2597     -38.082997     -39.758056     -39.758056      1.6750586    
    607000   1879.6121     -39.35628      -41.056993     -41.056993      1.7007125    
    608000   1816.4321     -38.660566     -40.304112     -40.304112      1.6435459    
    609000   1743.6718     -38.740974     -40.318685     -40.318685      1.5777109    
    610000   1848.9885     -39.003785     -40.676789     -40.676789      1.6730037    
    611000   1675.4606     -38.263439     -39.779431     -39.779431      1.5159919    
    612000   1809.3634     -39.268218     -40.905368     -40.905368      1.63715      
    613000   1798.821      -37.659508     -39.287119     -39.287119      1.6276111    
    614000   1799.1283     -39.031109     -40.658998     -40.658998      1.6278891    
    615000   1932.2262     -37.712954     -39.461273     -39.461273      1.7483189    
    616000   1771.8434     -38.841648     -40.444849     -40.444849      1.6032012    
    617000   2066.3465     -37.574206     -39.44388      -39.44388       1.8696738    
    618000   1852.2094     -38.605795     -40.281713     -40.281713      1.675918     
    619000   1959.3237     -38.982109     -40.754947     -40.754947      1.7728373    
    620000   1850.7571     -38.052971     -39.727575     -39.727575      1.6746039    
    621000   1852.095      -39.443782     -41.119596     -41.119596      1.6758145    
    622000   1656.984      -37.999188     -39.498462     -39.498462      1.4992739    
    623000   1905.6313     -38.534298     -40.258553     -40.258553      1.7242552    
    624000   1715.7539     -38.060574     -39.613024     -39.613024      1.5524501    
    625000   1865.0472     -37.994325     -39.681859     -39.681859      1.6875339    
    626000   2030.5936     -38.171798     -40.009122     -40.009122      1.8373237    
    627000   1819.1062     -38.409294     -40.05526      -40.05526       1.6459656    
    628000   1908.9361     -38.476147     -40.203392     -40.203392      1.7272455    
    629000   1811.2729     -38.673641     -40.312519     -40.312519      1.6388778    
    630000   1734.4245     -37.597119     -39.166463     -39.166463      1.5693437    
    631000   2095.9024     -37.850877     -39.747294     -39.747294      1.8964166    
    632000   1877.2105     -38.904855     -40.603395     -40.603395      1.6985395    
    633000   1840.629      -38.908603     -40.574042     -40.574042      1.6654398    
    634000   2047.0249     -36.596127     -38.448319     -38.448319      1.8521912    
    635000   1959.567      -38.643286     -40.416344     -40.416344      1.7730574    
    636000   1915.0743     -38.453927     -40.186726     -40.186726      1.7327995    
    637000   1927.5807     -39.072384     -40.816499     -40.816499      1.7441155    
    638000   2013.9132     -38.640852     -40.463083     -40.463083      1.8222309    
    639000   1769.2703     -37.060276     -38.661148     -38.661148      1.6008729    
    640000   1728.7003     -37.810898     -39.375062     -39.375062      1.5641644    
    641000   1978.9308     -37.924954     -39.715532     -39.715532      1.7905782    
    642000   1996.926      -39.619833     -41.426694     -41.426694      1.8068606    
    643000   2062.6649     -38.84788      -40.714223     -40.714223      1.8663426    
    644000   1728.6149     -38.846767     -40.410855     -40.410855      1.5640871    
    645000   1934.4782     -38.403467     -40.153824     -40.153824      1.7503565    
    646000   2026.8101     -38.103763     -39.937663     -39.937663      1.8339004    
    647000   2080.071      -38.502308     -40.3844       -40.3844        1.882092     
    648000   1914.312      -38.619426     -40.351536     -40.351536      1.7321097    
    649000   1990.125      -38.420843     -40.221549     -40.221549      1.8007069    
    650000   1909.152      -38.067861     -39.795302     -39.795302      1.7274408    
    651000   2110.4145     -38.889212     -40.79876      -40.79876       1.9095474    
    652000   1884.7347     -37.511758     -39.217105     -39.217105      1.7053476    
    653000   1964.7865     -38.783339     -40.56112      -40.56112       1.7777801    
    654000   2098.7994     -37.286071     -39.185109     -39.185109      1.8990378    
    655000   1862.9637     -38.79765      -40.483299     -40.483299      1.6856487    
    656000   1838.2798     -39.542502     -41.205816     -41.205816      1.6633142    
    657000   1829.4096     -36.972499     -38.627787     -38.627787      1.6552883    
    658000   1896.609      -38.904651     -40.620742     -40.620742      1.7160917    
    659000   1925.1574     -37.576686     -39.318609     -39.318609      1.7419229    
    660000   1900.1121     -37.022394     -38.741655     -38.741655      1.7192614    
    661000   2004.961      -38.645415     -40.459546     -40.459546      1.8141309    
    662000   1924.3211     -37.443974     -39.18514      -39.18514       1.7411662    
    663000   2028.9405     -39.353        -41.188828     -41.188828      1.835828     
    664000   2031.7512     -39.203234     -41.041605     -41.041605      1.8383712    
    665000   2028.6939     -38.613684     -40.449289     -40.449289      1.8356049    
    666000   1867.8444     -36.6743       -38.364364     -38.364364      1.6900648    
    667000   2083.8748     -35.841012     -37.726546     -37.726546      1.8855337    
    668000   1915.4364     -38.137483     -39.870611     -39.870611      1.7331271    
    669000   1836.7014     -38.756518     -40.418404     -40.418404      1.661886     
    670000   1973.1074     -37.919643     -39.704952     -39.704952      1.785309     
    671000   2188.2656     -38.455574     -40.435563     -40.435563      1.9799887    
    672000   2062.2058     -37.897264     -39.763191     -39.763191      1.8659271    
    673000   1987.2997     -39.120828     -40.918978     -40.918978      1.7981506    
    674000   1827.0228     -39.192379     -40.845507     -40.845507      1.6531286    
    675000   1990.0479     -37.784335     -39.584972     -39.584972      1.8006372    
    676000   1852.4341     -38.605293     -40.281414     -40.281414      1.6761213    
    677000   2029.3129     -38.594842     -40.431006     -40.431006      1.8361649    
    678000   1983.6734     -38.402232     -40.197102     -40.197102      1.7948693    
    679000   2079.325      -37.803596     -39.685013     -39.685013      1.881417     
    680000   2021.7237     -37.522146     -39.351444     -39.351444      1.8292981    
    681000   2013.8118     -38.830426     -40.652565     -40.652565      1.8221392    
    682000   2032.3112     -38.324024     -40.162902     -40.162902      1.8388779    
    683000   2014.7236     -37.71392      -39.536884     -39.536884      1.8229643    
    684000   1958.8394     -37.419851     -39.19225      -39.19225       1.7723991    
    685000   2025.1948     -37.196597     -39.029035     -39.029035      1.8324388    
    686000   2111.0605     -37.047327     -38.957459     -38.957459      1.9101319    
    687000   2213.9285     -38.458855     -40.462064     -40.462064      2.0032091    
    688000   2033.1748     -38.308061     -40.14772      -40.14772       1.8396593    
    689000   2083.9421     -38.495238     -40.380833     -40.380833      1.8855946    
    690000   1974.9045     -38.6511       -40.438035     -40.438035      1.7869351    
    691000   2224.3334     -37.675443     -39.688066     -39.688066      2.0126236    
    692000   2021.4579     -38.598095     -40.427152     -40.427152      1.8290576    
    693000   1993.4785     -36.925199     -38.728941     -38.728941      1.8037413    
    694000   2057.641      -38.755519     -40.617316     -40.617316      1.8617968    
    695000   2065.1324     -36.860512     -38.729087     -38.729087      1.8685752    
    696000   1960.4051     -38.187711     -39.961526     -39.961526      1.7738157    
    697000   2068.4579     -38.646198     -40.517782     -40.517782      1.8715842    
    698000   2158.2191     -37.443253     -39.396055     -39.396055      1.952802     
    699000   2012.4759     -37.889014     -39.709945     -39.709945      1.8209304    
    700000   2228.6078     -38.103171     -40.119662     -40.119662      2.0164911    
    701000   1981.6627     -38.044043     -39.837093     -39.837093      1.79305      
    702000   2141.3801     -38.323579     -40.261145     -40.261145      1.9375657    
    703000   1975.7847     -37.525686     -39.313418     -39.313418      1.7877315    
    704000   2200.8451     -37.538139     -39.529509     -39.529509      1.9913709    
    705000   2236.0434     -37.239561     -39.26278      -39.26278       2.0232191    
    706000   2241.0465     -37.500635     -39.528381     -39.528381      2.027746     
    707000   1985.1187     -37.990679     -39.786857     -39.786857      1.7961772    
    708000   1942.8872     -38.431352     -40.189318     -40.189318      1.7579652    
    709000   2087.8949     -38.231677     -40.120848     -40.120848      1.8891711    
    710000   2173.476      -37.597763     -39.56437      -39.56437       1.9666067    
    711000   2033.3852     -38.859212     -40.699061     -40.699061      1.8398497    
    712000   2168.8939     -36.304646     -38.267107     -38.267107      1.9624608    
    713000   2087.1412     -38.110582     -39.999071     -39.999071      1.8884892    
    714000   2217.3409     -37.346345     -39.352642     -39.352642      2.0062966    
    715000   2176.5671     -37.739352     -39.708755     -39.708755      1.9694036    
    716000   2188.2654     -38.437372     -40.417361     -40.417361      1.9799885    
    717000   2101.9406     -37.813464     -39.715344     -39.715344      1.90188      
    718000   2175.1081     -37.2537       -39.221783     -39.221783      1.9680835    
    719000   2167.5967     -36.95117      -38.912457     -38.912457      1.961287     
    720000   1961.0688     -37.027662     -38.802078     -38.802078      1.7744163    
    721000   2307.1738     -37.294082     -39.381661     -39.381661      2.0875793    
    722000   2322.0751     -38.154649     -40.255711     -40.255711      2.1010624    
    723000   2473.9115     -38.221397     -40.459844     -40.459844      2.2384471    
    724000   2215.3538     -38.670578     -40.675077     -40.675077      2.0044987    
    725000   1812.8144     -36.88063      -38.520902     -38.520902      1.6402725    
    726000   2063.5241     -37.869105     -39.736225     -39.736225      1.86712      
    727000   2206.2175     -35.635081     -37.631313     -37.631313      1.996232     
    728000   2206.4755     -38.697532     -40.693997     -40.693997      1.9964654    
    729000   2248.6854     -37.880688     -39.915345     -39.915345      2.0346578    
    730000   2238.5396     -38.624578     -40.650056     -40.650056      2.0254777    
    731000   2334.5322     -37.731158     -39.843492     -39.843492      2.1123338    
    732000   2146.8809     -37.218773     -39.161316     -39.161316      1.942543     
    733000   2268.871      -38.803074     -40.855996     -40.855996      2.0529221    
    734000   2122.9132     -36.43133      -38.352186     -38.352186      1.9208565    
    735000   2104.7278     -38.406783     -40.311185     -40.311185      1.904402     
    736000   2188.713      -36.334876     -38.31527      -38.31527       1.9803935    
    737000   1976.5841     -38.002502     -39.790957     -39.790957      1.7884548    
    738000   2025.4484     -35.846776     -37.679444     -37.679444      1.8326683    
    739000   2298.7546     -38.151188     -40.23115      -40.23115       2.0799615    
    740000   2302.3978     -36.727772     -38.81103      -38.81103       2.0832579    
    741000   2137.1067     -38.33752      -40.27122      -40.27122       1.933699     
    742000   2118.5954     -38.481588     -40.398538     -40.398538      1.9169496    
    743000   2272.214      -39.914987     -41.970934     -41.970934      2.055947     
    744000   2183.8427     -40.598082     -42.574069     -42.574069      1.9759867    
    745000   2133.6219     -38.930912     -40.861458     -40.861458      1.9305459    
    746000   2352.3273     -36.178521     -38.306956     -38.306956      2.1284351    
    747000   2231.1441     -39.488562     -41.507348     -41.507348      2.0187861    
    748000   2230.1318     -40.215209     -42.233079     -42.233079      2.0178701    
    749000   2228.2928     -39.854571     -41.870777     -41.870777      2.0162062    
    750000   2236.4664     -38.35713      -40.380732     -40.380732      2.0236018    
    751000   2146.2854     -38.373778     -40.315782     -40.315782      1.9420042    
    752000   2207.2135     -39.356897     -41.35403      -41.35403       1.9971332    
    753000   2189.9436     -39.750488     -41.731995     -41.731995      1.981507     
    754000   2244.0572     -39.358406     -41.388876     -41.388876      2.0304701    
    755000   2184.7762     -37.440405     -39.417236     -39.417236      1.9768314    
    756000   2364.1122     -38.223497     -40.362595     -40.362595      2.1390984    
    757000   2293.6471     -40.190075     -42.265415     -42.265415      2.0753401    
    758000   2275.4491     -39.721331     -41.780205     -41.780205      2.0588742    
    759000   2191.5987     -38.766775     -40.74978      -40.74978       1.9830045    
    760000   2218.1343     -38.4141       -40.421114     -40.421114      2.0070146    
    761000   2233.7077     -38.954298     -40.975404     -40.975404      2.0211057    
    762000   2372.0308     -39.84839      -41.994653     -41.994653      2.1462633    
    763000   2295.5157     -40.345608     -42.422639     -42.422639      2.0770309    
    764000   2208.121      -38.88812      -40.886074     -40.886074      1.9979543    
    765000   2198.0286     -37.198369     -39.187192     -39.187192      1.9888225    
    766000   2439.0195     -37.994007     -40.200883     -40.200883      2.2068761    
    767000   2277.8106     -40.188979     -42.24999      -42.24999       2.0610109    
    768000   2339.7024     -40.298171     -42.415183     -42.415183      2.1170119    
    769000   2292.572      -38.355478     -40.429845     -40.429845      2.0743673    
    770000   2302.9229     -37.674526     -39.758259     -39.758259      2.0837331    
    771000   2241.6339     -38.880952     -40.90923      -40.90923       2.0282775    
    772000   2307.272      -39.892394     -41.980062     -41.980062      2.0876682    
    773000   2322.9488     -39.720549     -41.822402     -41.822402      2.1018529    
    774000   2250.2628     -39.005776     -41.041861     -41.041861      2.0360851    
    775000   2249.5576     -37.389713     -39.42516      -39.42516       2.035447     
    776000   2308.14       -39.02258      -41.111034     -41.111034      2.0884536    
    777000   2373.9949     -39.955377     -42.103417     -42.103417      2.1480405    
    778000   2321.5402     -39.4955       -41.596078     -41.596078      2.1005784    
    779000   2293.7986     -38.424988     -40.500465     -40.500465      2.0754772    
    780000   2347.0215     -38.514518     -40.638152     -40.638152      2.1236343    
    781000   2355.5474     -39.408813     -41.540162     -41.540162      2.1313488    
    782000   2378.4259     -39.902973     -42.055023     -42.055023      2.1520497    
    783000   2287.5043     -38.993363     -41.063145     -41.063145      2.069782     
    784000   2386.1912     -38.178806     -40.337882     -40.337882      2.159076     
    785000   2312.747      -38.419984     -40.512606     -40.512606      2.0926221    
    786000   2383.0354     -39.674946     -41.831166     -41.831166      2.1562205    
    787000   2376.3519     -39.396764     -41.546937     -41.546937      2.1501731    
    788000   2265.4639     -39.11497      -41.164809     -41.164809      2.0498393    
    789000   2378.8203     -38.852472     -41.004879     -41.004879      2.1524066    
    790000   2349.7395     -38.801831     -40.927925     -40.927925      2.1260937    
    791000   2343.1717     -39.619763     -41.739914     -41.739914      2.120151     
    792000   2353.5098     -39.865759     -41.995264     -41.995264      2.1295051    
    793000   2322.6564     -38.896621     -40.998209     -40.998209      2.1015883    
    794000   2359.7022     -38.650935     -40.786043     -40.786043      2.1351082    
    795000   2412.3687     -39.175358     -41.35812      -41.35812       2.1827619    
    796000   2411.8959     -39.983118     -42.165452     -42.165452      2.1823341    
    797000   2358.9955     -40.049142     -42.18361      -42.18361       2.1344687    
    798000   2404.7588     -38.839723     -41.0156       -41.0156        2.1758763    
    799000   2456.9424     -37.852642     -40.075735     -40.075735      2.2230932    
    800000   2333.8902     -38.204624     -40.316377     -40.316377      2.1117529    
    801000   2418.045      -39.504492     -41.69239      -41.69239       2.187898     
    802000   2451.3886     -40.134146     -42.352214     -42.352214      2.218068     
    803000   2368.1679     -38.598241     -40.74101      -40.74101       2.1427681    
    804000   2392.0833     -37.705549     -39.869956     -39.869956      2.1644072    
    805000   2410.4024     -39.21557      -41.396552     -41.396552      2.1809827    
    806000   2450.3695     -39.550851     -41.767997     -41.767997      2.2171458    
    807000   2444.7074     -39.722034     -41.934057     -41.934057      2.2120226    
    808000   2497.8434     -39.010142     -41.270243     -41.270243      2.2601012    
    809000   2362.6408     -36.774109     -38.911876     -38.911876      2.137767     
    810000   2404.0412     -39.813466     -41.988693     -41.988693      2.175227     
    811000   2488.2134     -39.484873     -41.736261     -41.736261      2.2513878    
    812000   2422.825      -38.932803     -41.125025     -41.125025      2.1922229    
    813000   2484.4748     -38.784397     -41.032402     -41.032402      2.248005     
    814000   2453.253      -37.450905     -39.67066      -39.67066       2.2197548    
    815000   2482.2459     -39.60942      -41.855408     -41.855408      2.2459883    
    816000   2437.504      -39.830135     -42.03564      -42.03564       2.2055049    
    817000   2313.567      -38.503083     -40.596447     -40.596447      2.0933641    
    818000   2392.0562     -39.095674     -41.260057     -41.260057      2.1643827    
    819000   2504.0159     -37.51878      -39.784466     -39.784466      2.2656862    
    820000   2438.9435     -39.722733     -41.92954      -41.92954       2.2068074    
    821000   2480.538      -40.088869     -42.333311     -42.333311      2.2444429    
    822000   2419.2012     -38.304738     -40.493682     -40.493682      2.1889441    
    823000   2427.8034     -38.248094     -40.444821     -40.444821      2.1967276    
    824000   2569.6677     -38.105131     -40.43022      -40.43022       2.3250893    
    825000   2442.3634     -39.4665       -41.676401     -41.676401      2.2099017    
    826000   2461.6996     -39.610624     -41.838021     -41.838021      2.2273975    
    827000   2483.2628     -38.945782     -41.19269      -41.19269       2.2469084    
    828000   2473.4918     -38.358856     -40.596924     -40.596924      2.2380673    
    829000   2560.1905     -38.262292     -40.578806     -40.578806      2.3165142    
    830000   2428.4303     -39.157931     -41.355226     -41.355226      2.1972948    
    831000   2491.8771     -40.315126     -42.569829     -42.569829      2.2547028    
    832000   2432.9308     -39.190404     -41.391771     -41.391771      2.201367     
    833000   2404.2786     -37.930235     -40.105677     -40.105677      2.1754418    
    834000   2466.6129     -38.548702     -40.780545     -40.780545      2.2318432    
    835000   2279.7898     -37.199466     -39.262267     -39.262267      2.0628017    
    836000   2497.1342     -39.058542     -41.318002     -41.318002      2.2594595    
    837000   2350.4658     -35.961292     -38.088042     -38.088042      2.1267508    
    838000   2563.3471     -38.957521     -41.276892     -41.276892      2.3193704    
    839000   2679.3488     -36.454868     -38.879199     -38.879199      2.4243311    
    840000   2598.5653     -38.860033     -41.21127      -41.21127       2.3512365    
    841000   2455.1445     -36.738721     -38.960188     -38.960188      2.2214663    
    842000   2606.7158     -37.57711      -39.935722     -39.935722      2.3586113    
    843000   2507.5969     -38.466699     -40.735626     -40.735626      2.2689264    
    844000   2697.8621     -36.028779     -38.469862     -38.469862      2.4410824    
    845000   2526.9969     -38.682973     -40.969453     -40.969453      2.2864799    
    846000   2471.1909     -34.464305     -36.70029      -36.70029       2.2359854    
    847000   2650.3735     -39.015822     -41.413936     -41.413936      2.3981136    
    848000   2917.6699     -35.520624     -38.160593     -38.160593      2.639969     
    849000   2459.1379     -39.174268     -41.399348     -41.399348      2.2250797    
    850000   2465.9551     -36.733378     -38.964626     -38.964626      2.231248     
    851000   2434.6667     -37.25104      -39.453977     -39.453977      2.2029376    
    852000   2597.03       -38.197065     -40.546912     -40.546912      2.3498473    
    853000   2314.1011     -36.253983     -38.34783      -38.34783       2.0938473    
    854000   2603.7217     -38.956776     -41.312678     -41.312678      2.3559021    
    855000   2381.1384     -33.716549     -35.871053     -35.871053      2.154504     
    856000   2708.68       -39.347023     -41.797894     -41.797894      2.4508706    
    857000   2419.1901     -37.318        -39.506934     -39.506934      2.188934     
    858000   2952.5543     -36.140758     -38.812291     -38.812291      2.6715332    
    859000   2465.9905     -34.419256     -36.650536     -36.650536      2.2312801    
    860000   2369.5437     -35.631103     -37.775116     -37.775116      2.144013     
    861000   2431.2568     -34.03409      -36.233943     -36.233943      2.1998523    
    862000   2550.1803     -35.542013     -37.84947      -37.84947       2.3074567    
    863000   2393.6245     -35.165533     -37.331335     -37.331335      2.1658017    
    864000   2564.2343     -35.198039     -37.518212     -37.518212      2.3201731    
    865000   2683.8329     -36.264662     -38.693051     -38.693051      2.4283884    
    866000   2793.6485     -34.846982     -37.374733     -37.374733      2.5277518    
    867000   2516.8009     -39.034264     -41.311518     -41.311518      2.2772543    
    868000   2731.9415     -35.810372     -38.28229      -38.28229       2.4719181    
    869000   2671.9022     -39.072405     -41.489999     -41.489999      2.4175933    
    870000   2534.5702     -37.796764     -40.090096     -40.090096      2.2933324    
    871000   2427.9112     -36.39833      -38.595155     -38.595155      2.196825     
    872000   2670.0217     -39.20484      -41.620731     -41.620731      2.4158917    
    873000   2811.9577     -35.09455      -37.638868     -37.638868      2.5443185    
    874000   2523.9527     -39.113533     -41.397259     -41.397259      2.2837254    
    875000   2668.3541     -35.262318     -37.676701     -37.676701      2.4143829    
    876000   2696.0596     -39.56513      -42.004581     -42.004581      2.4394514    
    877000   2684.1596     -36.051658     -38.480342     -38.480342      2.428684     
    878000   2625.246      -39.829452     -42.204829     -42.204829      2.3753778    
    879000   2752.3273     -35.515328     -38.005691     -38.005691      2.4903636    
    880000   2695.9994     -39.212812     -41.652209     -41.652209      2.4393969    
[...]
   1888000   637.22418     -44.050865     -44.627439     -44.627439      0.57657383   
   1889000   633.9342      -44.061527     -44.635124     -44.635124      0.57359699   
   1890000   629.63901     -44.075225     -44.644935     -44.644935      0.56971061   
   1891000   628.87868     -44.081658     -44.65068      -44.65068       0.56902264   
   1892000   623.74716     -44.071321     -44.635701     -44.635701      0.56437954   
   1893000   618.65973     -44.110481     -44.670257     -44.670257      0.55977632   
   1894000   619.62966     -44.109264     -44.669918     -44.669918      0.56065394   
   1895000   616.03436     -44.098722     -44.656123     -44.656123      0.55740083   
   1896000   611.14334     -44.09885      -44.651826     -44.651826      0.55297534   
   1897000   609.38175     -44.127543     -44.678924     -44.678924      0.55138141   
   1898000   609.39456     -44.114119     -44.665512     -44.665512      0.551393     
   1899000   601.10573     -44.124396     -44.668289     -44.668289      0.5438931    
   1900000   601.75089     -44.123522     -44.667999     -44.667999      0.54447685   
   1901000   597.30516     -44.136714     -44.677168     -44.677168      0.54045426   
   1902000   594.62805     -44.150185     -44.688217     -44.688217      0.53803196   
   1903000   594.41739     -44.151436     -44.689277     -44.689277      0.53784135   
   1904000   589.63091     -44.127401     -44.660911     -44.660911      0.53351044   
   1905000   582.60364     -44.163692     -44.690844     -44.690844      0.52715202   
   1906000   585.18923     -44.166323     -44.695815     -44.695815      0.52949151   
   1907000   578.30656     -44.147559     -44.670823     -44.670823      0.52326393   
   1908000   576.74565     -44.160948     -44.6828       -44.6828        0.52185159   
   1909000   574.45487     -44.163856     -44.683635     -44.683635      0.51977884   
   1910000   569.85263     -44.168369     -44.683983     -44.683983      0.51561464   
   1911000   566.08599     -44.189843     -44.702049     -44.702049      0.5122065    
   1912000   567.22723     -44.168829     -44.682068     -44.682068      0.51323911   
   1913000   557.81334     -44.187425     -44.692147     -44.692147      0.50472124   
   1914000   558.79112     -44.207119     -44.712725     -44.712725      0.50560594   
   1915000   556.34091     -44.201866     -44.705255     -44.705255      0.50338895   
   1916000   549.54368     -44.211011     -44.70825      -44.70825       0.49723867   
   1917000   549.63033     -44.212922     -44.710239     -44.710239      0.49731708   
   1918000   544.36546     -44.207117     -44.699671     -44.699671      0.49255331   
   1919000   541.37933     -44.227683     -44.717535     -44.717535      0.48985139   
   1920000   543.38189     -44.231333     -44.722996     -44.722996      0.49166335   
   1921000   535.4431      -44.234627     -44.719108     -44.719108      0.48448017   
   1922000   534.85489     -44.25719      -44.741138     -44.741138      0.48394795   
   1923000   532.47115     -44.246587     -44.728378     -44.728378      0.48179109   
   1924000   528.65761     -44.24662      -44.72496      -44.72496       0.47834052   
   1925000   525.04172     -44.256313     -44.731382     -44.731382      0.47506878   
   1926000   522.40449     -44.250966     -44.723649     -44.723649      0.47268256   
   1927000   521.34118     -44.264288     -44.736009     -44.736009      0.47172045   
   1928000   518.42684     -44.263586     -44.732669     -44.732669      0.4690835    
   1929000   512.07233     -44.271625     -44.734959     -44.734959      0.4633338    
   1930000   510.37607     -44.294377     -44.756176     -44.756176      0.46179899   
   1931000   508.56844     -44.27524      -44.735404     -44.735404      0.46016342   
   1932000   502.72327     -44.273977     -44.728851     -44.728851      0.45487458   
   1933000   499.97211     -44.293001     -44.745387     -44.745387      0.45238527   
   1934000   497.69263     -44.301547     -44.75187      -44.75187       0.45032275   
   1935000   494.47699     -44.297299     -44.744712     -44.744712      0.44741317   
   1936000   491.61528     -44.304313     -44.749137     -44.749137      0.44482383   
   1937000   486.39961     -44.331583     -44.771688     -44.771688      0.44010459   
   1938000   487.09539     -44.332252     -44.772986     -44.772986      0.44073415   
   1939000   480.86141     -44.315873     -44.750967     -44.750967      0.43509351   
   1940000   476.73976     -44.335789     -44.767153     -44.767153      0.43136415   
   1941000   478.33995     -44.347172     -44.779984     -44.779984      0.43281203   
   1942000   474.9331      -44.332595     -44.762324     -44.762324      0.42972945   
   1943000   472.27418     -44.342279     -44.769602     -44.769602      0.4273236    
   1944000   467.8207      -44.352118     -44.775412     -44.775412      0.423294     
   1945000   467.49369     -44.36115      -44.784148     -44.784148      0.42299812   
   1946000   465.02163     -44.357388     -44.778149     -44.778149      0.42076135   
   1947000   455.83361     -44.359162     -44.77161      -44.77161       0.41244783   
   1948000   457.17565     -44.384555     -44.798217     -44.798217      0.41366214   
   1949000   452.9018      -44.363836     -44.773632     -44.773632      0.40979507   
   1950000   449.51417     -44.382881     -44.78961      -44.78961       0.40672987   
   1951000   447.76603     -44.387165     -44.792313     -44.792313      0.40514811   
   1952000   443.56203     -44.382127     -44.783471     -44.783471      0.40134425   
   1953000   442.23539     -44.415838     -44.815982     -44.815982      0.40014388   
   1954000   440.2614      -44.394967     -44.793324     -44.793324      0.39835776   
   1955000   432.83004     -44.420208     -44.811842     -44.811842      0.39163372   
   1956000   432.77852     -44.421922     -44.813509     -44.813509      0.3915871    
   1957000   428.47333     -44.41285      -44.800541     -44.800541      0.38769168   
   1958000   426.10837     -44.431079     -44.816631     -44.816631      0.38555181   
   1959000   423.51988     -44.41944      -44.80265      -44.80265       0.38320968   
   1960000   418.73873     -44.438947     -44.81783      -44.81783       0.3788836    
   1961000   419.37267     -44.44151      -44.820967     -44.820967      0.3794572    
   1962000   412.89059     -44.433226     -44.806818     -44.806818      0.37359208   
   1963000   410.50658     -44.467363     -44.838798     -44.838798      0.37143498   
   1964000   410.85722     -44.4542       -44.825952     -44.825952      0.37175225   
   1965000   404.53335     -44.453772     -44.819802     -44.819802      0.36603027   
   1966000   403.21616     -44.466991     -44.83183      -44.83183       0.36483846   
   1967000   398.78747     -44.470741     -44.831572     -44.831572      0.36083128   
   1968000   397.57319     -44.478122     -44.837854     -44.837854      0.35973258   
   1969000   392.06067     -44.473969     -44.828714     -44.828714      0.35474473   
   1970000   389.23169     -44.500187     -44.852372     -44.852372      0.35218501   
   1971000   388.04051     -44.500397     -44.851504     -44.851504      0.35110721   
   1972000   383.87083     -44.492962     -44.840296     -44.840296      0.34733439   
   1973000   380.03366     -44.510998     -44.85486      -44.85486       0.34386244   
   1974000   378.57444     -44.508283     -44.850826     -44.850826      0.34254211   
   1975000   375.72992     -44.514724     -44.854693     -44.854693      0.33996832   
   1976000   371.82309     -44.515765     -44.852198     -44.852198      0.33643335   
   1977000   369.50996     -44.534022     -44.868363     -44.868363      0.33434038   
   1978000   367.53547     -44.527551     -44.860105     -44.860105      0.33255382   
   1979000   362.11635     -44.533213     -44.860863     -44.860863      0.32765049   
   1980000   360.38519     -44.54528      -44.871364     -44.871364      0.32608409   
   1981000   356.66729     -44.535708     -44.858428     -44.858428      0.32272006   
   1982000   353.54817     -44.559135     -44.879032     -44.879032      0.31989781   
   1983000   352.28643     -44.548315     -44.867071     -44.867071      0.31875617   
   1984000   345.79825     -44.561408     -44.874293     -44.874293      0.31288552   
   1985000   346.4464      -44.573848     -44.88732      -44.88732       0.31347198   
   1986000   342.27606     -44.568322     -44.87802      -44.87802       0.30969857   
   1987000   339.2155      -44.581817     -44.888746     -44.888746      0.30692931   
   1988000   336.80583     -44.582696     -44.887445     -44.887445      0.30474899   
   1989000   333.88156     -44.590613     -44.892716     -44.892716      0.30210305   
   1990000   330.83439     -44.589263     -44.888609     -44.888609      0.29934591   
   1991000   325.98339     -44.602182     -44.897138     -44.897138      0.29495662   
   1992000   325.51616     -44.608912     -44.903446     -44.903446      0.29453386   
   1993000   320.62247     -44.600767     -44.890873     -44.890873      0.29010595   
   1994000   317.44591     -44.614378     -44.901609     -44.901609      0.28723173   
   1995000   315.20583     -44.61885      -44.904055     -44.904055      0.28520486   
   1996000   312.27089     -44.624402     -44.906951     -44.906951      0.28254926   
   1997000   308.33951     -44.626076     -44.905068     -44.905068      0.27899207   
   1998000   305.65867     -44.645256     -44.921823     -44.921823      0.27656638   
   1999000   304.07542     -44.638036     -44.91317      -44.91317       0.27513383   
   2000000   298.63869     -44.645913     -44.916127     -44.916127      0.27021456   
   2001000   298.2691      -44.657079     -44.92696      -44.92696       0.26988015   
   2002000   293.99939     -44.651739     -44.917756     -44.917756      0.26601683   
   2003000   291.15644     -44.666941     -44.930386     -44.930386      0.26344447   
   2004000   288.44738     -44.663028     -44.924021     -44.924021      0.26099325   
   2005000   284.88067     -44.675565     -44.933331     -44.933331      0.25776601   
   2006000   282.20726     -44.676892     -44.932239     -44.932239      0.25534706   
   2007000   279.29951     -44.680067     -44.932783     -44.932783      0.25271606   
   2008000   276.26942     -44.686666     -44.936641     -44.936641      0.24997438   
   2009000   272.72137     -44.694966     -44.94173      -44.94173       0.24676402   
   2010000   270.24231     -44.698446     -44.942967     -44.942967      0.24452092   
   2011000   265.60371     -44.701528     -44.941852     -44.941852      0.24032382   
   2012000   264.27716     -44.718838     -44.957962     -44.957962      0.23912353   
   2013000   261.76316     -44.708219     -44.945068     -44.945068      0.2368488    
   2014000   257.43799     -44.721817     -44.954753     -44.954753      0.2329353    
   2015000   255.88635     -44.724589     -44.95612      -44.95612       0.23153135   
   2016000   252.06337     -44.732613     -44.960685     -44.960685      0.22807223   
   2017000   249.4254      -44.731229     -44.956914     -44.956914      0.22568534   
   2018000   245.83808     -44.747608     -44.970048     -44.970048      0.22243946   
   2019000   244.43689     -44.741281     -44.962453     -44.962453      0.22117163   
   2020000   238.95577     -44.750589     -44.966801     -44.966801      0.2162122    
   2021000   237.98786     -44.759296     -44.974632     -44.974632      0.21533641   
   2022000   233.82977     -44.759446     -44.97102      -44.97102       0.21157409   
   2023000   231.41161     -44.770082     -44.979468     -44.979468      0.20938608   
   2024000   227.9417      -44.772191     -44.978438     -44.978438      0.20624644   
   2025000   225.12245     -44.780899     -44.984594     -44.984594      0.20369553   
   2026000   222.00827     -44.785065     -44.985943     -44.985943      0.20087775   
   2027000   219.74863     -44.790205     -44.989038     -44.989038      0.19883318   
   2028000   215.82054     -44.791243     -44.986522     -44.986522      0.19527896   
   2029000   213.50668     -44.803086     -44.996272     -44.996272      0.19318533   
   2030000   210.42087     -44.79885      -44.989244     -44.989244      0.19039322   
   2031000   206.47608     -44.814821     -45.001645     -45.001645      0.1868239    
   2032000   204.77026     -44.815445     -45.000725     -45.000725      0.18528044   
   2033000   200.67463     -44.817859     -44.999434     -44.999434      0.18157462   
   2034000   198.10727     -44.827739     -45.006991     -45.006991      0.17925162   
   2035000   195.16038     -44.831576     -45.008161     -45.008161      0.17658521   
   2036000   192.10614     -44.836603     -45.010425     -45.010425      0.17382167   
   2037000   188.60646     -44.846571     -45.017226     -45.017226      0.17065509   
   2038000   186.74508     -44.848905     -45.017875     -45.017875      0.16897087   
   2039000   182.49305     -44.850885     -45.016008     -45.016008      0.16512354   
   2040000   180.25071     -44.860099     -45.023193     -45.023193      0.16309463   
   2041000   177.08417     -44.862379     -45.022609     -45.022609      0.16022947   
   2042000   174.19858     -44.87056      -45.028179     -45.028179      0.15761854   
   2043000   171.19873     -44.871549     -45.026453     -45.026453      0.15490421   
   2044000   167.83926     -44.880784     -45.032648     -45.032648      0.15186449   
   2045000   164.94515     -44.885741     -45.034987     -45.034987      0.14924584   
   2046000   162.43546     -44.891995     -45.03897      -45.03897       0.14697502   
   2047000   159.30306     -44.893688     -45.037829     -45.037829      0.14414076   
   2048000   156.11049     -44.901938     -45.04319      -45.04319       0.14125205   
   2049000   153.24334     -44.906918     -45.045576     -45.045576      0.13865779   
   2050000   150.3845      -44.914688     -45.050759     -45.050759      0.13607106   
   2051000   147.52311     -44.916697     -45.050179     -45.050179      0.13348201   
   2052000   144.32373     -44.922269     -45.052856     -45.052856      0.13058715   
   2053000   140.89649     -44.927466     -45.054952     -45.054952      0.1274861    
   2054000   138.63109     -44.93657      -45.062006     -45.062006      0.12543633   
   2055000   135.34953     -44.934898     -45.057365     -45.057365      0.1224671    
   2056000   131.73712     -44.945689     -45.064887     -45.064887      0.11919851   
   2057000   129.75716     -44.950207     -45.067615     -45.067615      0.11740701   
   2058000   126.08147     -44.954686     -45.068767     -45.068767      0.11408116   
   2059000   123.35213     -44.961367     -45.072978     -45.072978      0.1116116    
   2060000   120.18785     -44.967114     -45.075863     -45.075863      0.1087485    
   2061000   117.15726     -44.971389     -45.077396     -45.077396      0.10600636   
   2062000   114.25611     -44.977859     -45.08124      -45.08124       0.10338133   
   2063000   111.1484      -44.980561     -45.081131     -45.081131      0.10056941   
   2064000   108.01171     -44.988482     -45.086213     -45.086213      0.097731263  
   2065000   105.29612     -44.992836     -45.08811      -45.08811       0.09527414   
   2066000   101.99714     -44.99743      -45.089719     -45.089719      0.092289152  
   2067000   99.098041     -45.004313     -45.093979     -45.093979      0.08966599   
   2068000   96.03491      -45.009517     -45.096411     -45.096411      0.086894404  
   2069000   93.187689     -45.013851     -45.098169     -45.098169      0.084318179  
   2070000   89.994845     -45.0199       -45.101329     -45.101329      0.081429227  
   2071000   87.097253     -45.025339     -45.104146     -45.104146      0.078807424  
   2072000   84.134131     -45.03072      -45.106847     -45.106847      0.07612633   
   2073000   81.110738     -45.035545     -45.108936     -45.108936      0.0733907    
   2074000   77.994386     -45.040598     -45.111169     -45.111169      0.07057096   
   2075000   75.058695     -45.047145     -45.115059     -45.115059      0.067914684  
   2076000   72.061147     -45.050996     -45.116198     -45.116198      0.06520244   
   2077000   69.016665     -45.057037     -45.119485     -45.119485      0.062447729  
   2078000   66.077911     -45.062993     -45.122782     -45.122782      0.059788683  
   2079000   63.144584     -45.067684     -45.124818     -45.124818      0.057134546  
   2080000   60.014117     -45.072971     -45.127273     -45.127273      0.054302035  
   2081000   57.112797     -45.079409     -45.131086     -45.131086      0.051676859  
   2082000   54.152667     -45.083344     -45.132343     -45.132343      0.048998471  
   2083000   51.057248     -45.089728     -45.135926     -45.135926      0.046197671  
   2084000   48.1431       -45.094757     -45.138318     -45.138318      0.043560888  
   2085000   45.140807     -45.099965     -45.140809     -45.140809      0.040844351  
   2086000   42.093238     -45.105441     -45.143528     -45.143528      0.038086847  
   2087000   39.180553     -45.111141     -45.146592     -45.146592      0.035451387  
   2088000   36.139744     -45.116201     -45.148901     -45.148901      0.0327       
   2089000   33.138399     -45.122039     -45.152023     -45.152023      0.02998432   
   2090000   30.172449     -45.127075     -45.154376     -45.154376      0.027300666  
   2091000   27.155785     -45.132786     -45.157357     -45.157357      0.024571125  
   2092000   24.177591     -45.138043     -45.159919     -45.159919      0.021876392  
   2093000   21.167885     -45.143464     -45.162618     -45.162618      0.019153147  
   2094000   18.157141     -45.14894      -45.165369     -45.165369      0.016428963  
   2095000   15.185501     -45.154327     -45.168067     -45.168067      0.01374016   
   2096000   12.163472     -45.159765     -45.170771     -45.170771      0.011005765  
   2097000   9.1667327     -45.165269     -45.173563     -45.173563      0.0082942524 
   2098000   6.1697783     -45.170614     -45.176197     -45.176197      0.0055825451 
   2099000   3.1596959     -45.176046     -45.178905     -45.178905      0.0028589592 
   2100000   0.15097324    -45.181213     -45.181349     -45.181349      0.00013660376
   2100036   0.037790359   -45.18136      -45.181394     -45.181394      3.4193511e-05
Loop time of 31.2603 on 1 procs for 1000000 steps with 8 atoms

Performance: 276.389 ns/day, 0.087 hours/ns, 31989.412 timesteps/s, 255.915 katom-step/s
97.2% CPU use with 1 MPI tasks x 1 OpenMP threads

MPI task timing breakdown:
Section |  min time  |  avg time  |  max time  |%varavg| %total
---------------------------------------------------------------
Pair    | 22.082     | 22.082     | 22.082     |   0.0 | 70.64
Neigh   | 1.5997     | 1.5997     | 1.5997     |   0.0 |  5.12
Comm    | 1.5264     | 1.5264     | 1.5264     |   0.0 |  4.88
Output  | 0.92459    | 0.92459    | 0.92459    |   0.0 |  2.96
Modify  | 3.8661     | 3.8661     | 3.8661     |   0.0 | 12.37
Other   |            | 1.262      |            |       |  4.04

Nlocal:              8 ave           8 max           8 min
Histogram: 1 0 0 0 0 0 0 0 0 0
Nghost:             60 ave          60 max          60 min
Histogram: 1 0 0 0 0 0 0 0 0 0
Neighs:              0 ave           0 max           0 min
Histogram: 1 0 0 0 0 0 0 0 0 0
FullNghs:           56 ave          56 max          56 min
Histogram: 1 0 0 0 0 0 0 0 0 0

Total # of neighbors = 56
Ave neighs/atom = 7
Neighbor list builds = 13462
Dangerous builds = 0
write_restart 	./endconf/endconf*3.restart
System init for write_restart ...
Total wall time: 0:01:08
