LAMMPS (7 Feb 2024 - Update 1)
OMP_NUM_THREADS environment is not set. Defaulting to 1 thread. (src/comm.cpp:98)
  using 1 OpenMP thread(s) per MPI task
#============Initialization=================
units 			metal
atom_style 		atomic
boundary 		f f f

#=========Simulation box definition=========
region 			bigbox block 0 10 0 10 0 10
create_box 		1 bigbox
Created orthogonal box = (0 0 0) to (10 10 10)
  1 by 1 by 1 MPI processor grid

#==================Atoms====================
region 			safezone block 1 9 1 9 1 9
create_atoms 	1 random 4 12345 safezone
Created 4 atoms
  using lattice units in orthogonal box = (0 0 0) to (10 10 10)
  create_atoms CPU = 0.000 seconds
labelmap 		atom 1 C
mass 			* 12.01

#==========Velocity initialization==========
velocity 		all create 1.0 12345 rot yes dist gaussian

#======Pair style for atom interactions=============
pair_style 		airebo 2.5
pair_coeff 		* * CH.airebo C
Reading airebo potential file CH.airebo with DATE: 2011-10-25

#==============Neighbor selection===================
neighbor 		0.3 bin
neigh_modify 	every 2 delay 10 check yes

#====Fixes for time integration and constraints=====
fix 			1 all nve
fix 			2 all temp/berendsen 300.0 3000.0 0.1

#==============Custom Wall force====================
#==========Wall with harmonic potential=============
variable        k equal 100.0

fix             xlo_wall all wall/harmonic xlo EDGE v_k 1.0 0.7
fix             xhi_wall all wall/harmonic xhi EDGE v_k 1.0 0.7
fix             ylo_wall all wall/harmonic ylo EDGE v_k 1.0 0.7
fix             yhi_wall all wall/harmonic yhi EDGE v_k 1.0 0.7
fix             zlo_wall all wall/harmonic zlo EDGE v_k 1.0 0.7
fix             zhi_wall all wall/harmonic zhi EDGE v_k 1.0 0.7

#=====================Timestep======================
timestep 		0.0001

#========System temperature printing info===========
thermo_style 	custom step temp etotal pe
thermo 			500

#===============Define dump command=================
dump 			1 all cfg 200 ./dump/dump.tensile_*.cfg mass type xs ys zs vx vy vz id

#================Run simulation=====================
run 			200000
Neighbor list info ...
  update: every = 2 steps, delay = 10 steps, check = yes
  max neighbors/atom: 2000, page size: 100000
  master list distance cutoff = 8.8
  ghost atom cutoff = 8.8
  binsize = 4.4, bins = 3 3 3
  1 neighbor lists, perpetual/occasional/extra = 1 0 0
  (1) pair airebo, perpetual
      attributes: full, newton on, ghost
      pair build: full/bin/ghost
      stencil: full/ghost/bin/3d
      bin: standard
Per MPI rank memory allocation (min/avg/max) = 3.854 | 3.854 | 3.854 Mbytes
   Step          Temp          TotEng         PotEng    
         0   1             -8.1525735e-05 -0.00046930617
       500   120.21578      0.046110195   -0.00050713327
      1000   195.3404       0.075119578   -0.00062960672
      1500   243.85431      0.093662272   -0.00089966016
      2000   276.40628      0.10578474    -0.0014002141 
      2500   299.43275      0.1139025     -0.0022116636 
      3000   320.3922       0.11934353    -0.0048982991 
      3500   329.37484      0.12355662    -0.0041685005 
      4000   336.39971      0.12734722    -0.0031020093 
      4500   344.8309       0.1305623     -0.003156374  
      5000   353.05829      0.13350868    -0.0034004205 
      5500   361.83742      0.13614932    -0.0041641505 
      6000   374.70294      0.13775151    -0.0075509581 
      6500   370.44636      0.14005397    -0.0035978808 
      7000   376.52465      0.14350138    -0.0025075092 
      7500   383.6878       0.14693141    -0.0018552089 
      8000   391.21498      0.15026612    -0.0014393937 
      8500   398.7264       0.15344808    -0.0011702131 
      9000   324.06389      0.1246874     -0.00097823184
      9500   415.44939      0.16020771    -0.00089543759
     10000   421.76733      0.16273764    -0.00081548172
     10500   433.03819      0.16659892    -0.0013248213 
     11000   440.29612      0.16826846    -0.0024697594 
     11500   716.57425     -0.44986783    -0.72774131   
     12000   10985.676     -1.8039138     -6.0639439    
     12500   6073.0702     -2.7979979     -5.1530157    
     13000   6629.7629     -3.5650437     -6.135936     
     13500   1277.0025     -4.1134949     -4.6086914    
     14000   188.07785     -4.4668327     -4.5397657    
     14500   102.25492     -4.7376135     -4.7772659    
     15000   356.2532      -4.9490697     -5.0872177    
     15500   2082.5215     -5.1286805     -5.9362416    
     16000   517.3347      -5.288615      -5.4892272    
     16500   2007.3746     -5.4055394     -6.18396      
     17000   10382.368     -6.3340606     -10.36014     
     17500   5213.132      -7.9016503     -9.9232009    
     18000   6261.4441     -8.8701403     -11.298206    
     18500   1134.8824     -9.6637541     -10.103839    
     19000   588.55341     -10.262925     -10.491154    
     19500   1271.5366     -10.740201     -11.233278    
     20000   1773.2256     -11.105101     -11.792723    
     20500   1483.1843     -11.394311     -11.969461    
     21000   591.43506     -11.613304     -11.842651    
     21500   669.80768     -11.79187      -12.051609    
     22000   801.12488     -11.924812     -12.235473    
     22500   158.43006     -12.030118     -12.091554    
     23000   38.828987     -12.113826     -12.128883    
     23500   182.78502     -12.178328     -12.249209    
     24000   360.7568      -12.227464     -12.367358    
     24500   511.37049     -12.264358     -12.462658    
     25000   589.59578     -12.291912     -12.520546    
     25500   605.14253     -12.31245      -12.547113    
     26000   584.2795      -12.328053     -12.554625    
     26500   572.81854     -12.340723     -12.562851    
     27000   662.42547     -12.350582     -12.607458    
     27500   746.09555     -12.355956     -12.645277    
     28000   752.87081     -12.357641     -12.649589    
     28500   735.12416     -12.358136     -12.643203    
     29000   744.55671     -12.359406     -12.648131    
     29500   794.76196     -12.361822     -12.670016    
     30000   979.41098     -12.364527     -12.744324    
     30500   6394.5467     -12.786191     -15.265871    
     31000   5036.7979     -14.097084     -16.050256    
     31500   6423.1169     -14.950083     -17.440842    
     32000   2813.0082     -15.733918     -16.824747    
     32500   4791.5623     -16.335898     -18.193972    
     33000   1748.7986     -16.748424     -17.426574    
     33500   2547.4945     -17.14938      -18.137249    
     34000   2355.839      -17.398395     -18.311944    
     34500   1013.1921     -17.600755     -17.993651    
     35000   2110.5271     -17.801817     -18.620238    
     35500   1012.2144     -17.905048     -18.297565    
     36000   810.64009     -18.019834     -18.334185    
     36500   793.66967     -18.101462     -18.409232    
     37000   1005.3577     -18.148985     -18.538843    
     37500   472.2842      -18.209618     -18.39276     
     38000   1469.609      -18.255288     -18.825174    
     38500   751.76114     -18.258429     -18.549947    
     39000   465.20688     -18.305922     -18.48632     
     39500   1194.0744     -18.320226     -18.783265    
     40000   641.93011     -18.304381     -18.553309    
     40500   379.26783     -18.33355      -18.480623    
     41000   889.30554     -18.354689     -18.699544    
     41500   1613.723      -18.338564     -18.964334    
     42000   606.89637     -18.339875     -18.575218    
     42500   970.53275     -18.358885     -18.735239    
     43000   1336.6379     -18.331645     -18.849967    
     43500   517.788       -18.326391     -18.527179    
     44000   1176.9102     -18.334688     -18.791071    
     44500   1038.936      -18.317742     -18.720621    
     45000   912.06374     -18.309005     -18.662685    
     45500   889.05233     -18.326286     -18.671043    
     46000   1675.8629     -18.31078      -18.960646    
     46500   1068.7299     -18.299557     -18.71399     
     47000   937.45618     -18.312103     -18.67563     
     47500   1543.1266     -18.306968     -18.905362    
     48000   1047.4648     -18.285172     -18.691358    
     48500   978.32387     -18.29977      -18.679144    
     49000   1212.5587     -18.287248     -18.757454    
     49500   1330.8816     -18.27577      -18.79186     
     50000   1275.852      -18.270815     -18.765565    
     50500   1438.6228     -18.26047      -18.818339    
     51000   1273.0905     -18.256463     -18.750142    
     51500   644.32768     -18.262466     -18.512324    
     52000   1155.8166     -18.257068     -18.705271    
     52500   720.00664     -18.24534      -18.524544    
     53000   757.48909     -18.252648     -18.546387    
     53500   660.81866     -18.242733     -18.498985    
     54000   1159.2335     -18.2388       -18.688328    
     54500   602.64559     -18.231952     -18.465646    
     55000   824.99216     -18.239304     -18.559219    
     55500   933.26121     -18.221971     -18.583871    
     56000   1087.4849     -18.212542     -18.634248    
     56500   1072.6838     -18.222945     -18.638911    
     57000   1570.6161     -18.193263     -18.802317    
     57500   868.06545     -18.199059     -18.535678    
     58000   1424.212      -18.201934     -18.754216    
     58500   1279.2284     -18.160778     -18.656838    
     59000   1144.9839     -18.181425     -18.625427    
     59500   817.52013     -18.175622     -18.49264     
     60000   1179.8442     -18.162353     -18.619873    
     60500   824.37319     -18.171127     -18.490803    
     61000   1362.6271     -18.156611     -18.685011    
     61500   784.58592     -18.160296     -18.464543    
     62000   1052.1371     -18.160836     -18.568834    
     62500   1291.4791     -18.151479     -18.652289    
     63000   1287.6368     -18.147383     -18.646703    
     63500   763.23003     -18.141615     -18.437581    
     64000   852.89599     -18.114226     -18.444963    
     64500   987.19478     -18.135859     -18.518673    
     65000   1688.9284     -18.125714     -18.780647    
     65500   1248.3439     -18.098765     -18.582849    
     66000   1207.0239     -18.122736     -18.590797    
     66500   1360.0962     -18.136027     -18.663446    
     67000   1619.7946     -18.13974      -18.767865    
     67500   809.22556     -18.173122     -18.486924    
     68000   1417.3367     -18.196399     -18.746014    
     68500   1359.1243     -18.182315     -18.709357    
     69000   949.0642      -18.177967     -18.545996    
     69500   1406.6575     -18.199764     -18.745238    
     70000   1279.4207     -18.175736     -18.67187     
     70500   1113.1528     -18.179412     -18.611071    
     71000   1247.5452     -18.201778     -18.685552    
     71500   1229.9464     -18.176481     -18.653431    
     72000   1083.1308     -18.16982      -18.589836    
     72500   1466.1187     -18.18488      -18.753412    
     73000   1454.9764     -18.166039     -18.73025     
     73500   1118.8111     -18.1689       -18.602753    
     74000   1501.6099     -18.179326     -18.761621    
     74500   1160.2629     -18.162981     -18.612908    
     75000   1371.9176     -18.157577     -18.68958     
     75500   959.51166     -18.172971     -18.545051    
     76000   1382.2999     -18.183232     -18.719261    
     76500   1242.1526     -18.160837     -18.642519    
     77000   1084.6715     -18.187218     -18.607832    
     77500   1663.5678     -18.172777     -18.817876    
     78000   1205.3139     -18.162763     -18.630161    
     78500   1442.3986     -18.160683     -18.720017    
     79000   1534.6668     -18.185098     -18.780212    
     79500   1760.4425     -18.196992     -18.879657    
     80000   1050.0888     -18.202561     -18.609765    
     80500   1313.1778     -18.216782     -18.726007    
     81000   1780.2174     -18.229691     -18.920024    
     81500   1715.9721     -18.201603     -18.867023    
     82000   1132.4087     -18.218058     -18.657184    
     82500   1425.8216     -18.236958     -18.789864    
     83000   2017.3949     -18.212045     -18.994351    
     83500   1314.7539     -18.208876     -18.718711    
     84000   1261.5481     -18.229926     -18.71913     
     84500   1955.026      -18.212482     -18.970603    
     85000   1229.1402     -18.202535     -18.679171    
     85500   1412.2178     -18.231711     -18.779342    
     86000   1883.5709     -18.191694     -18.922106    
     86500   1114.98       -18.141369     -18.573737    
     87000   1345.2421     -18.153117     -18.674776    
     87500   2222.5751     -18.11232      -18.974191    
     88000   1274.9347     -18.083038     -18.577433    
     88500   1443.2893     -18.113265     -18.672945    
     89000   2072.99       -18.103963     -18.907828    
     89500   1535.4835     -18.072772     -18.668202    
     90000   1043.5163     -18.098297     -18.502952    
     90500   1565.5295     -18.098993     -18.706075    
     91000   1634.5222     -18.075638     -18.709474    
     91500   1209.8266     -18.090329     -18.559476    
     92000   1588.381      -18.109568     -18.725511    
     92500   1633.1583     -18.102656     -18.735963    
     93000   1550.1781     -18.098045     -18.699174    
     93500   1461.2866     -18.125205     -18.691864    
     94000   1933.8703     -18.104693     -18.85461     
     94500   1242.1154     -18.109369     -18.591037    
     95000   1878.4414     -18.118417     -18.84684     
     95500   1846.6305     -18.105737     -18.821825    
     96000   1647.4534     -18.105826     -18.744676    
     96500   1671.8322     -18.115363     -18.763667    
     97000   1936.3044     -18.09642      -18.847281    
     97500   1658.6755     -18.103343     -18.746544    
     98000   1889.3392     -18.104317     -18.836965    
     98500   1531.7667     -18.089988     -18.683977    
     99000   1564.5529     -18.089043     -18.695746    
     99500   1654.7008     -18.099888     -18.741548    
    100000   1956.2691     -18.08812      -18.846723    
    100500   1286.7171     -18.087027     -18.585991    
    101000   2377.1696     -18.011972     -18.933792    
    101500   1777.1615     -18.022506     -18.711655    
    102000   1635.0503     -18.069893     -18.703934    
    102500   1842.5577     -18.065101     -18.779609    
    103000   1818.5311     -18.057112     -18.762303    
    103500   1654.5347     -18.077531     -18.719127    
    104000   2082.5732     -18.081201     -18.888783    
    104500   1811.1835     -18.058319     -18.760661    
    105000   1281.7132     -18.076465     -18.573489    
    105500   1850.1375     -18.073548     -18.790995    
    106000   2004.2275     -18.061063     -18.838263    
    106500   1329.0064     -18.074616     -18.589979    
    107000   1234.4086     -18.28495      -18.763629    
    107500   1913.7168     -17.998502     -18.740604    
    108000   1293.8515     -18.014485     -18.516215    
    108500   1624.0664     -18.033501     -18.663282    
    109000   2164.3761     -17.992672     -18.831975    
    109500   1371.378      -17.974952     -18.506746    
    110000   2189.9955     -17.981869     -18.831106    
    110500   2317.3764     -17.974289     -18.872922    
    111000   1552.8803     -17.984224     -18.586401    
    111500   1591.7046     -18.005147     -18.622379    
    112000   1788.8277     -18.010874     -18.704546    
    112500   1691.7457     -17.999989     -18.656015    
    113000   2015.6837     -18.004647     -18.786289    
    113500   1984.4409     -18.013942     -18.783469    
    114000   2274.0056     -18.010515     -18.89233     
    114500   1609.238      -18.006392     -18.630423    
    115000   1769.2215     -18.002142     -18.688212    
    115500   2013.9953     -18.043305     -18.824293    
    116000   1652.7389     -18.011621     -18.652521    
    116500   1668.91       -18.033701     -18.680872    
    117000   1816.4362     -18.044061     -18.748439    
    117500   1482.1945     -18.054093     -18.628859    
    118000   1754.7562     -18.06273      -18.74319     
    118500   1532.3694     -18.059542     -18.653765    
    119000   1731.0429     -18.066571     -18.737836    
    119500   1587.0053     -18.068855     -18.684265    
    120000   2053.2115     -18.063238     -18.859433    
    120500   1490.9866     -18.060196     -18.638372    
    121000   1977.4092     -18.0712       -18.838001    
    121500   2006.4441     -18.063358     -18.841417    
    122000   2055.6097     -18.05946      -18.856586    
    122500   1716.8389     -18.131975     -18.797731    
    123000   2006.1692     -18.041444     -18.819398    
    123500   1622.4721     -18.033827     -18.662989    
    124000   2040.7564     -18.037365     -18.82873     
    124500   2292.0117     -18.029491     -18.918288    
    125000   2162.182      -18.013517     -18.851969    
    125500   1920.9597     -18.018698     -18.763609    
    126000   1889.8216     -18.025443     -18.758279    
    126500   2154.8464     -18.016753     -18.85236     
    127000   1858.764      -18.007255     -18.728048    
    127500   1738.299      -18.017144     -18.691222    
    128000   1979.927      -18.020337     -18.788114    
    128500   2167.1297     -18.013766     -18.854137    
    129000   1703.9678     -18.005881     -18.666647    
    129500   1974.5311     -18.006872     -18.772556    
    130000   1816.391      -17.976825     -18.681186    
    130500   2071.5213     -17.973565     -18.776861    
    131000   1843.3184     -17.969249     -18.684052    
    131500   1859.8472     -17.950708     -18.671921    
    132000   1732.3125     -17.946102     -18.617859    
    132500   2541.0181     -17.947934     -18.933291    
    133000   1955.2693     -17.939655     -18.69787     
    133500   1732.2455     -17.944165     -18.615896    
    134000   1988.5222     -17.954527     -18.725637    
    134500   2333.592      -17.935506     -18.840428    
    135000   1719.9752     -17.935521     -18.602494    
    135500   1849.8747     -17.940548     -18.657893    
    136000   1924.2419     -17.931672     -18.677855    
    136500   1691.1524     -17.894928     -18.550724    
    137000   2352.904      -17.840296     -18.752706    
    137500   1564.5443     -17.846882     -18.453582    
    138000   1978.1908     -17.85633      -18.623434    
    138500   1690.0037     -17.85896      -18.51431     
    139000   2549.1447     -17.850355     -18.838863    
    139500   1585.1445     -17.861482     -18.47617     
    140000   2362.822      -17.870519     -18.786775    
    140500   1742.3874     -17.868036     -18.543699    
    141000   2311.9644     -17.81453      -18.711065    
    141500   1447.2043     -17.795112     -18.35631     
    142000   2854.4409     -17.792801     -18.899698    
    142500   1805.7206     -17.754895     -18.455118    
    143000   1700.7218     -17.748348     -18.407854    
    143500   1994.1919     -17.753343     -18.526651    
    144000   3038.9343     -17.735008     -18.913447    
    144500   1772.1188     -17.741831     -18.429024    
    145000   2235.0377     -17.754023     -18.620726    
    145500   1594.3782     -17.734275     -18.352544    
    146000   2422.0666     -17.735051     -18.674281    
    146500   1672.2722     -17.802966     -18.45144     
    147000   2283.4408     -17.672717     -18.558191    
    147500   2127.1625     -17.665975     -18.490847    
    148000   2045.9248     -17.657006     -18.450376    
    148500   2016.1892     -17.641516     -18.423355    
    149000   2706.7335     -17.671281     -18.720899    
    149500   2617.7746     -17.658045     -18.673167    
    150000   2370.1651     -17.674192     -18.593296    
    150500   2593.9841     -17.672756     -18.678652    
    151000   1987.1527     -17.677785     -18.448364    
    151500   2429.2434     -17.658783     -18.600796    
    152000   2041.5298     -17.675552     -18.467218    
    152500   2452.2683     -17.672771     -18.623713    
    153000   2752.6854     -17.665886     -18.733323    
    153500   2290.1401     -17.671426     -18.559498    
    154000   2418.3374     -17.670034     -18.607818    
    154500   2454.4884     -17.646491     -18.598294    
    155000   2384.8778     -17.675185     -18.599994    
    155500   2739.0296     -17.681222     -18.743364    
    156000   2286.8277     -17.667678     -18.554465    
    156500   1598.5663     -17.602665     -18.222557    
    157000   2582.2745     -17.62667      -18.628025    
    157500   1992.9963     -17.663521     -18.436366    
    158000   3172.056      -17.677991     -18.908053    
    158500   2152.01       -17.685443     -18.51995     
    159000   2500.0092     -17.70716      -18.676615    
    159500   2858.4027     -17.721016     -18.829448    
    160000   2565.4783     -17.702698     -18.69754     
    160500   2695.5378     -17.715208     -18.760485    
    161000   2225.9279     -17.725777     -18.588948    
    161500   2989.6409     -17.716754     -18.876078    
    162000   2479.8424     -17.722758     -18.684392    
    162500   2646.7457     -17.718599     -18.744955    
    163000   3168.6348     -17.777117     -19.005851    
    163500   2737.5226     -17.803368     -18.864925    
    164000   2801.0188     -17.827863     -18.914043    
    164500   2185.1507     -17.843021     -18.69038     
    165000   2786.0602     -17.846945     -18.927325    
    165500   2340.1318     -17.860683     -18.768141    
    166000   2809.6575     -17.859261     -18.948791    
    166500   2392.7414     -17.853397     -18.781255    
    167000   1944.1188     -17.799339     -18.553231    
    167500   2386.6215     -17.749761     -18.675246    
    168000   1992.828      -17.714814     -18.487594    
    168500   1946.6601     -17.686853     -18.441729    
    169000   2586.5325     -17.708089     -18.711096    
    169500   2553.9579     -17.743847     -18.734222    
    170000   2293.248      -17.747758     -18.637035    
    170500   2770.873      -17.76607      -18.84056     
    171000   2196.8705     -17.766137     -18.618041    
    171500   2579.6659     -17.780047     -18.780391    
    172000   2183.7091     -17.773428     -18.620228    
    172500   2757.476      -17.777142     -18.846437    
    173000   2231.3949     -17.775364     -18.640656    
    173500   2646.1623     -17.782419     -18.808549    
    174000   2081.3731     -17.882383     -18.689499    
    174500   2061.8517     -17.62723      -18.426776    
    175000   3381.2886     -17.57263      -18.883827    
    175500   1658.1213     -17.44407      -18.087057    
    176000   3669.3947     -17.329966     -18.752886    
    176500   1664.7653     -17.266412     -17.911975    
    177000   3048.3248     -17.269597     -18.451677    
    177500   2728.8033     -17.163935     -18.222111    
    178000   2077.5297     -17.23138      -18.037006    
    178500   3575.246      -17.17396      -18.56037     
    179000   1576.4994     -17.169948     -17.781284    
    179500   3372.4752     -17.182549     -18.490329    
    180000   1925.0704     -17.121458     -17.867963    
    180500   3022.5357     -17.169689     -18.341769    
    181000   2900.578      -17.102301     -18.227088    
    181500   2994.4242     -17.170795     -18.331974    
    182000   2893.1511     -17.09466      -18.216567    
    182500   2506.1275     -17.15585      -18.127677    
    183000   3635.5912     -17.132667     -18.542478    
    183500   2246.1868     -17.131003     -18.00203     
    184000   3671.3838     -17.122434     -18.546125    
    184500   3093.4337     -17.114041     -18.313614    
    185000   2406.7748     -17.20715      -18.14045     
    185500   3392.5706     -17.218824     -18.534396    
    186000   2571.8664     -17.249258     -18.246578    
    186500   3160.751      -17.291842     -18.517519    
    187000   2901.5231     -17.283791     -18.408944    
    187500   2384.737      -17.343573     -18.268328    
    188000   3473.7046     -17.342363     -18.689397    
    188500   2700.2627     -17.35852      -18.405629    
    189000   2891.9271     -17.394205     -18.515638    
    189500   3285.0533     -17.403179     -18.677058    
    190000   2462.6502     -17.37162      -18.326588    
    190500   2435.7209     -17.416233     -18.360758    
    191000   3487.5016     -17.395388     -18.747773    
    191500   2821.5559     -17.388526     -18.482671    
    192000   2672.3788     -17.41984      -18.456136    
    192500   3149.9194     -17.386505     -18.607982    
    193000   2670.0607     -17.380938     -18.416336    
    193500   3282.9556     -17.416137     -18.689203    
    194000   3692.4571     -17.391683     -18.823546    
    194500   2838.4603     -17.370264     -18.470964    
    195000   2752.4316     -17.335763     -18.403102    
    195500   2921.8323     -17.327756     -18.460786    
    196000   3064.8895     -17.351755     -18.54026     
    196500   3884.5701     -17.394152     -18.900513    
    197000   3092.9786     -17.411914     -18.61131     
    197500   3215.7315     -17.439979     -18.686977    
    198000   3266.4328     -17.460981     -18.727639    
    198500   3110.4111     -17.44609      -18.652247    
    199000   3167.3434     -17.464172     -18.692406    
    199500   2176.9743     -17.444035     -18.288223    
    200000   3423.7254     -17.448268     -18.775922    
Loop time of 6.42355 on 1 procs for 200000 steps with 4 atoms

Performance: 269.010 ns/day, 0.089 hours/ns, 31135.411 timesteps/s, 124.542 katom-step/s
32.5% CPU use with 1 MPI tasks x 1 OpenMP threads

MPI task timing breakdown:
Section |  min time  |  avg time  |  max time  |%varavg| %total
---------------------------------------------------------------
Pair    | 0.95688    | 0.95688    | 0.95688    |   0.0 | 14.90
Neigh   | 0.015231   | 0.015231   | 0.015231   |   0.0 |  0.24
Comm    | 0.044474   | 0.044474   | 0.044474   |   0.0 |  0.69
Output  | 4.4609     | 4.4609     | 4.4609     |   0.0 | 69.45
Modify  | 0.82087    | 0.82087    | 0.82087    |   0.0 | 12.78
Other   |            | 0.1252     |            |       |  1.95

Nlocal:              4 ave           4 max           4 min
Histogram: 1 0 0 0 0 0 0 0 0 0
Nghost:              0 ave           0 max           0 min
Histogram: 1 0 0 0 0 0 0 0 0 0
Neighs:              0 ave           0 max           0 min
Histogram: 1 0 0 0 0 0 0 0 0 0
FullNghs:           12 ave          12 max          12 min
Histogram: 1 0 0 0 0 0 0 0 0 0

Total # of neighbors = 12
Ave neighs/atom = 3
Neighbor list builds = 2676
Dangerous builds = 0
Total wall time: 0:00:06
