LAMMPS (7 Feb 2024 - Update 1)
OMP_NUM_THREADS environment is not set. Defaulting to 1 thread. (src/comm.cpp:98)
  using 1 OpenMP thread(s) per MPI task
#============Initialization=================
units 			metal
atom_style 		atomic
boundary 		f f f

#=========Simulation box definition=========
region 			bigbox block 0 10 0 10 0 10
create_box 		1 bigbox
Created orthogonal box = (0 0 0) to (10 10 10)
  1 by 1 by 1 MPI processor grid

#==================Atoms====================
region 			safezone block 1 9 1 9 1 9
create_atoms 	1 random 4 12345 safezone
Created 4 atoms
  using lattice units in orthogonal box = (0 0 0) to (10 10 10)
  create_atoms CPU = 0.002 seconds
labelmap 		atom 1 C
mass 			* 12.01

#==========Velocity initialization==========
velocity 		all create 1.0 12345 rot yes dist gaussian

#======Pair style for atom interactions=============
pair_style 		airebo 2.5
pair_coeff 		* * CH.airebo C
Reading airebo potential file CH.airebo with DATE: 2011-10-25

#==============Neighbor selection===================
neighbor 		0.3 bin
neigh_modify 	every 2 delay 10 check yes

#====Fixes for time integration and constraints=====
fix 			1 all nve
fix 			2 all temp/berendsen 300.0 3000.0 0.1

#==============Custom Wall force====================
#==========Wall with harmonic potential=============
variable        k equal 100.0

fix             xlo_wall all wall/harmonic xlo EDGE v_k 1.0 0.7
fix             xhi_wall all wall/harmonic xhi EDGE v_k 1.0 0.7
fix             ylo_wall all wall/harmonic ylo EDGE v_k 1.0 0.7
fix             yhi_wall all wall/harmonic yhi EDGE v_k 1.0 0.7
fix             zlo_wall all wall/harmonic zlo EDGE v_k 1.0 0.7
fix             zhi_wall all wall/harmonic zhi EDGE v_k 1.0 0.7

#=====================Timestep======================
timestep 		0.0001

#========System temperature printing info===========
thermo_style 	custom step temp etotal pe
thermo 			500

#===============Define dump command=================
dump 			1 all cfg 200 ./dump/dump.tensile_*.cfg mass type xs ys zs vx vy vz id

#================Run simulation=====================
run 			200000
Neighbor list info ...
  update: every = 2 steps, delay = 10 steps, check = yes
  max neighbors/atom: 2000, page size: 100000
  master list distance cutoff = 8.8
  ghost atom cutoff = 8.8
  binsize = 4.4, bins = 3 3 3
  1 neighbor lists, perpetual/occasional/extra = 1 0 0
  (1) pair airebo, perpetual
      attributes: full, newton on, ghost
      pair build: full/bin/ghost
      stencil: full/ghost/bin/3d
      bin: standard
Per MPI rank memory allocation (min/avg/max) = 3.854 | 3.854 | 3.854 Mbytes
   Step          Temp          TotEng         PotEng    
         0   1             -8.1525735e-05 -0.00046930617
       500   120.21578      0.046110195   -0.00050713327
      1000   195.3404       0.075119578   -0.00062960672
      1500   243.85431      0.093662272   -0.00089966016
      2000   276.40628      0.10578474    -0.0014002141 
      2500   299.43275      0.1139025     -0.0022116636 
      3000   320.3922       0.11934353    -0.0048982991 
      3500   329.37484      0.12355662    -0.0041685005 
      4000   336.39971      0.12734722    -0.0031020093 
      4500   344.8309       0.1305623     -0.003156374  
      5000   353.05829      0.13350868    -0.0034004205 
      5500   361.83742      0.13614932    -0.0041641505 
      6000   374.70294      0.13775151    -0.0075509581 
      6500   370.44636      0.14005397    -0.0035978808 
      7000   376.52465      0.14350138    -0.0025075092 
      7500   383.6878       0.14693141    -0.0018552089 
      8000   391.21498      0.15026612    -0.0014393937 
      8500   398.7264       0.15344808    -0.0011702131 
      9000   324.06389      0.1246874     -0.00097823184
      9500   415.44939      0.16020771    -0.00089543759
     10000   421.76733      0.16273764    -0.00081548172
     10500   433.03819      0.16659892    -0.0013248213 
     11000   440.29612      0.16826846    -0.0024697594 
     11500   716.57425     -0.44986783    -0.72774131   
     12000   10985.676     -1.8039138     -6.0639439    
     12500   6073.0702     -2.7979979     -5.1530157    
     13000   6629.7629     -3.5650437     -6.135936     
     13500   1277.0025     -4.1134949     -4.6086914    
     14000   188.07785     -4.4668327     -4.5397657    
     14500   102.25492     -4.7376135     -4.7772659    
     15000   356.2532      -4.9490697     -5.0872177    
     15500   2082.5215     -5.1286805     -5.9362416    
     16000   517.3347      -5.288615      -5.4892272    
     16500   2007.3746     -5.4055394     -6.18396      
     17000   10382.368     -6.3340606     -10.36014     
     17500   5213.132      -7.9016503     -9.9232009    
     18000   6261.4441     -8.8701403     -11.298206    
     18500   1134.8824     -9.6637541     -10.103839    
     19000   588.55341     -10.262925     -10.491154    
     19500   1271.5366     -10.740201     -11.233278    
     20000   1773.2256     -11.105101     -11.792723    
     20500   1483.1843     -11.394311     -11.969461    
     21000   591.43506     -11.613304     -11.842651    
     21500   669.80768     -11.79187      -12.051609    
     22000   801.12488     -11.924812     -12.235473    
     22500   158.43006     -12.030118     -12.091554    
     23000   38.828987     -12.113826     -12.128883    
     23500   182.78502     -12.178328     -12.249209    
     24000   360.7568      -12.227464     -12.367358    
     24500   511.37049     -12.264358     -12.462658    
     25000   589.59578     -12.291912     -12.520546    
     25500   605.14253     -12.31245      -12.547113    
     26000   584.2795      -12.328053     -12.554625    
     26500   572.81854     -12.340723     -12.562851    
     27000   662.42547     -12.350582     -12.607458    
     27500   746.09555     -12.355956     -12.645277    
     28000   752.87081     -12.357641     -12.649589    
     28500   735.12416     -12.358136     -12.643203    
     29000   744.55671     -12.359406     -12.648131    
     29500   794.76196     -12.361822     -12.670016    
     30000   979.41098     -12.364527     -12.744324    
     30500   6394.5467     -12.786191     -15.265871    
     31000   5036.7979     -14.097084     -16.050256    
     31500   6423.1169     -14.950083     -17.440842    
     32000   2813.0082     -15.733918     -16.824747    
     32500   4791.5623     -16.335898     -18.193972    
     33000   1748.7986     -16.748424     -17.426574    
     33500   2547.4945     -17.14938      -18.137249    
     34000   2355.839      -17.398395     -18.311944    
     34500   1013.1921     -17.600755     -17.993651    
     35000   2110.5271     -17.801817     -18.620238    
     35500   1012.2144     -17.905048     -18.297565    
     36000   810.64009     -18.019834     -18.334185    
     36500   793.66967     -18.101462     -18.409232    
     37000   1005.3577     -18.148985     -18.538843    
     37500   472.2842      -18.209618     -18.39276     
     38000   1469.609      -18.255288     -18.825174    
     38500   751.76114     -18.258429     -18.549947    
     39000   465.20688     -18.305922     -18.48632     
     39500   1194.0744     -18.320226     -18.783265    
     40000   641.93012     -18.304381     -18.553309    
     40500   379.26782     -18.33355      -18.480623    
     41000   889.30553     -18.354689     -18.699544    
     41500   1613.7231     -18.338564     -18.964334    
     42000   606.89617     -18.339875     -18.575218    
     42500   970.53298     -18.358885     -18.735239    
     43000   1336.6374     -18.331645     -18.849967    
     43500   517.78831     -18.326391     -18.527179    
     44000   1176.9083     -18.334688     -18.79107     
     44500   1038.9357     -18.317742     -18.720621    
     45000   912.0656      -18.309005     -18.662686    
     45500   889.05357     -18.326286     -18.671044    
     46000   1675.861      -18.31078      -18.960646    
     46500   1068.7221     -18.299557     -18.713987    
     47000   937.45125     -18.312103     -18.675628    
     47500   1543.1334     -18.306968     -18.905365    
     48000   1047.4558     -18.285171     -18.691354    
     48500   978.32632     -18.29977      -18.679146    
     49000   1212.5843     -18.287249     -18.757465    
     49500   1330.9481     -18.275771     -18.791887    
     50000   1275.5553     -18.270857     -18.765492    
     50500   1439.3611     -18.260513     -18.818669    
     51000   1273.3838     -18.256511     -18.750304    
     51500   644.83938     -18.262434     -18.51249     
     52000   1155.622      -18.257095     -18.705222    
     52500   721.25692     -18.245335     -18.525025    
     53000   753.28712     -18.252631     -18.544741    
     53500   667.64796     -18.241744     -18.500645    
     54000   1037.3174     -18.236797     -18.639049    
     54500   684.9354      -18.230343     -18.495948    
     55000   708.8603      -18.239399     -18.514281    
     55500   720.78636     -18.23469      -18.514197    
     56000   1037.3896     -18.222202     -18.624482    
     56500   1125.3554     -18.229677     -18.666068    
     57000   1569.1792     -18.220429     -18.828926    
     57500   837.28249     -18.213397     -18.538078    
     58000   1288.4345     -18.213832     -18.713462    
     58500   1373.7939     -18.204723     -18.737453    
     59000   1351.8417     -18.205353     -18.729571    
     59500   1090.6459     -18.203737     -18.626668    
     60000   1343.6275     -18.189164     -18.710196    
     60500   1121.2264     -18.187009     -18.621799    
     61000   1266.3047     -18.188874     -18.679922    
     61500   1145.4081     -18.172205     -18.616372    
     62000   844.97841     -18.1812       -18.508866    
     62500   1260.8669     -18.165711     -18.65465     
     63000   694.73052     -18.16575      -18.435153    
     63500   1255.2519     -18.171856     -18.658618    
     64000   876.76153     -18.147952     -18.487943    
     64500   849.76443     -18.165251     -18.494773    
     65000   1219.9793     -18.139641     -18.612725    
     65500   951.03893     -18.144445     -18.513239    
     66000   1559.7535     -18.142066     -18.746908    
     66500   1151.8935     -18.128052     -18.574733    
     67000   1392.2937     -18.147624     -18.687528    
     67500   787.10173     -18.150393     -18.455615    
     68000   1408.136      -18.164391     -18.710438    
     68500   1202.5275     -18.163953     -18.630269    
     69000   1508.0403     -18.171261     -18.75605     
     69500   1203.4701     -18.171353     -18.638035    
     70000   1464.5389     -18.171648     -18.739567    
     70500   1177.4785     -18.162588     -18.619191    
     71000   1501.8517     -18.181911     -18.7643      
     71500   1548.7152     -18.156564     -18.757125    
     72000   1415.5323     -18.163497     -18.712413    
     72500   1646.122      -18.161128     -18.799462    
     73000   1447.9714     -18.149308     -18.710803    
     73500   1429.1807     -18.147242     -18.701451    
     74000   1363.9263     -18.143672     -18.672575    
     74500   944.02383     -18.117481     -18.483555    
     75000   1505.9016     -18.140436     -18.724395    
     75500   1331.3928     -18.132861     -18.649149    
     76000   1646.1657     -18.118146     -18.756497    
     76500   832.87948     -18.128153     -18.451128    
     77000   1417.047      -18.123166     -18.672669    
     77500   1793.1144     -18.132927     -18.828262    
     78000   1187.8244     -18.138767     -18.599382    
     78500   1900.8051     -18.16561      -18.902705    
     79000   1535.4365     -18.193948     -18.78936     
     79500   1567.606      -18.21062      -18.818507    
     80000   1728.5033     -18.225976     -18.896255    
     80500   1284.6153     -18.235355     -18.733503    
     81000   1516.9896     -18.247208     -18.835467    
     81500   1397.2085     -18.244855     -18.786665    
     82000   1688.0609     -18.24975      -18.904347    
     82500   1304.6854     -18.250508     -18.75644     
     83000   1806.2263     -18.254623     -18.955042    
     83500   1335.8875     -18.249864     -18.767895    
     84000   1507.5864     -18.250245     -18.834857    
     84500   1322.6934     -18.253023     -18.765938    
     85000   1932.3805     -18.250589     -18.999928    
     85500   1300.4653     -18.247499     -18.751794    
     86000   1742.9122     -18.247412     -18.923279    
     86500   1469.1811     -18.248165     -18.817884    
     87000   1652.0118     -18.241566     -18.882184    
     87500   1335.0196     -18.223623     -18.741317    
     88000   1698.294      -18.22478      -18.883345    
     88500   1481.2504     -18.237537     -18.811937    
     89000   1605.8627     -18.189224     -18.811946    
     89500   1347.3115     -18.206774     -18.729235    
     90000   1834.0973     -18.21757      -18.928797    
     90500   1481.4691     -18.215845     -18.79033     
     91000   1693.8927     -18.213069     -18.869928    
     91500   1256.1223     -18.22736      -18.714459    
     92000   1726.0978     -18.221183     -18.89053     
     92500   1759.9419     -18.214096     -18.896567    
     93000   1466.3331     -18.21363      -18.782246    
     93500   1444.872      -18.221606     -18.781899    
     94000   1918.4986     -18.208344     -18.9523      
     94500   1402.6869     -18.201285     -18.74522     
     95000   1445.7913     -18.212001     -18.77265     
     95500   1781.59       -18.212109     -18.902975    
     96000   1589.8415     -18.199164     -18.815673    
     96500   1554.8743     -18.2006       -18.80355     
     97000   1532.893      -18.195668     -18.790094    
     97500   1730.2563     -18.192759     -18.863718    
     98000   1359.482      -18.1955       -18.72268     
     98500   1865.8795     -18.194969     -18.91852     
     99000   1774.0202     -18.188988     -18.876919    
     99500   1280.073      -18.180341     -18.676728    
    100000   1665.701      -18.191629     -18.837555    
    100500   1256.7205     -18.176043     -18.663375    
    101000   1664.1962     -18.132962     -18.778304    
    101500   1782.438      -18.11066      -18.801855    
    102000   1507.1426     -18.107867     -18.692307    
    102500   1575.6573     -18.108263     -18.719272    
    103000   1519.0146     -18.09428      -18.683324    
    103500   1761.5744     -18.115499     -18.798603    
    104000   2060.5214     -18.104505     -18.903535    
    104500   1493.4964     -18.112358     -18.691506    
    105000   1715.2351     -18.112323     -18.777457    
    105500   1680.7523     -18.116693     -18.768456    
    106000   1858.7737     -18.104878     -18.825674    
    106500   1336.1123     -18.116767     -18.634885    
    107000   2079.1178     -18.110805     -18.917046    
    107500   1457.3587     -18.106876     -18.672012    
    108000   1858.6282     -18.110791     -18.831531    
    108500   1504.414      -18.07101      -18.654392    
    109000   1656.2221     -18.053792     -18.696042    
    109500   1678.9301     -18.04435      -18.695406    
    110000   1897.0762     -18.029691     -18.76534     
    110500   1834.9653     -18.01888      -18.730443    
    111000   1801.3035     -18.017883     -18.716393    
    111500   2213.6675     -18.00521      -18.863627    
    112000   1534.8304     -18.003999     -18.599176    
    112500   1963.3125     -18.013985     -18.77532     
    113000   1789.3049     -17.996247     -18.690104    
    113500   1546.7714     -17.986919     -18.586727    
    114000   1706.6468     -18.001069     -18.662874    
    114500   1811.4825     -17.987211     -18.689669    
    115000   1860.4471     -17.990776     -18.712221    
    115500   1616.5406     -17.990516     -18.617379    
    116000   2087.6103     -17.990478     -18.800013    
    116500   1501.5022     -17.987133     -18.569386    
    117000   1443.1512     -18.0675       -18.627125    
    117500   1768.0093     -17.990618     -18.676217    
    118000   1646.2081     -17.963707     -18.602075    
    118500   1225.4785     -17.964689     -18.439905    
    119000   1674.1954     -17.964914     -18.614134    
    119500   1532.4002     -17.958081     -18.552316    
    120000   1371.0055     -17.953149     -18.484798    
    120500   1471.4032     -17.965015     -18.535596    
    121000   1851.2373     -17.969309     -18.687182    
    121500   2059.2524     -17.959553     -18.758091    
    122000   1662.677      -17.963815     -18.608568    
    122500   1697.3425     -17.970181     -18.628377    
    123000   2057.0305     -17.957205     -18.754881    
    123500   1725.311      -17.963056     -18.632098    
    124000   1854.0836     -17.982473     -18.70145     
    124500   2200.9079     -17.944981     -18.79845     
    125000   1740.5143     -17.964696     -18.639633    
    125500   2410.0448     -17.951365     -18.885933    
    126000   1913.3319     -17.94943      -18.691382    
    126500   1578.7265     -17.953104     -18.565304    
    127000   2151.4677     -17.944815     -18.779113    
    127500   2304.7704     -17.968876     -18.862621    
    128000   1715.1693     -18.013034     -18.678143    
    128500   1724.2995     -17.960582     -18.629231    
    129000   1667.2242     -17.948756     -18.595273    
    129500   2017.2082     -17.94745      -18.729684    
    130000   1519.0436     -17.941258     -18.530313    
    130500   1941.186      -17.942381     -18.695135    
    131000   1792.9175     -17.941011     -18.636269    
    131500   1986.2642     -17.929829     -18.700064    
    132000   1764.4368     -17.931436     -18.61565     
    132500   2313.6859     -17.935294     -18.832496    
    133000   1910.1314     -17.935902     -18.676613    
    133500   1911.8538     -17.922998     -18.664377    
    134000   2181.8898     -17.932475     -18.778569    
    134500   1844.5433     -17.903555     -18.618833    
    135000   2651.2554     -17.845191     -18.873296    
    135500   1627.3931     -17.975583     -18.606654    
    136000   2205.8311     -17.8354       -18.690779    
    136500   1672.5989     -17.808315     -18.456916    
    137000   2344.7442     -17.787195     -18.69644     
    137500   1892.8738     -17.746515     -18.480535    
    138000   2673.6012     -17.76807      -18.80484     
    138500   2410.8536     -17.746869     -18.681751    
    139000   2783.0837     -17.746481     -18.825706    
    139500   2029.5338     -17.75187      -18.538883    
    140000   2414.2938     -17.756883     -18.693099    
    140500   1997.3991     -17.74623      -18.520783    
    141000   2094.3789     -17.73359      -18.545749    
    141500   2313.6911     -17.738704     -18.635909    
    142000   1743.9191     -17.732139     -18.408397    
    142500   2077.3288     -17.742076     -18.547623    
    143000   1920.5457     -17.732935     -18.477685    
    143500   2114.5364     -17.737619     -18.557595    
    144000   2529.9022     -17.734307     -18.715353    
    144500   1965.2711     -17.746415     -18.508509    
    145000   2020.2414     -17.779317     -18.562727    
    145500   2268.1359     -17.774474     -18.654013    
    146000   2188.0652     -17.747114     -18.595603    
    146500   2168.8099     -17.768726     -18.609748    
    147000   2084.3131     -17.792714     -18.60097     
    147500   2484.5246     -17.762404     -18.725854    
    148000   1971.6736     -17.785832     -18.550409    
    148500   2442.7905     -17.797292     -18.744558    
    149000   2172.6602     -17.780916     -18.623431    
    149500   2370.485      -17.811418     -18.730646    
    150000   2593.3666     -17.782916     -18.788573    
    150500   1840.8176     -17.79135      -18.505183    
    151000   2532.346      -17.80922      -18.791214    
    151500   1828.4737     -17.699038     -18.408084    
    152000   2176.77       -17.711357     -18.555466    
    152500   2498.5846     -17.62633      -18.595233    
    153000   1874.7845     -17.625949     -18.352954    
    153500   2776.8869     -17.598376     -18.675198    
    154000   1850.0478     -17.558416     -18.275829    
    154500   3363.9956     -17.57322      -18.877712    
    155000   2049.8098     -17.553033     -18.347909    
    155500   2437.2525     -17.645044     -18.590163    
    156000   2508.9155     -17.584684     -18.557592    
    156500   2031.633      -17.614067     -18.401894    
    157000   2991.8443     -17.631012     -18.79119     
    157500   2377.1398     -17.600475     -18.522283    
    158000   2274.1884     -17.634952     -18.516838    
    158500   2651.3481     -17.641504     -18.669644    
    159000   2350.102      -17.599787     -18.511111    
    159500   2309.8415     -17.646466     -18.542177    
    160000   3186.2919     -17.63462      -18.870202    
    160500   2055.3169     -17.610048     -18.407059    
    161000   2572.9594     -17.661486     -18.65923     
    161500   2712.5979     -17.618439     -18.670332    
    162000   2429.1868     -17.639239     -18.58123     
    162500   2780.0414     -17.709809     -18.787855    
    163000   3143.7762     -17.673359     -18.892453    
    163500   2801.2169     -17.708476     -18.794733    
    164000   2158.6535     -17.75284      -18.589923    
    164500   3016.8969     -17.766715     -18.936609    
    165000   2336.8027     -17.748353     -18.65452     
    165500   2108.8715     -17.746299     -18.564078    
    166000   2162.5433     -17.764537     -18.603129    
    166500   1826.5285     -17.733236     -18.441528    
    167000   1347.3344     -17.565807     -18.088277    
    167500   1566.5256     -17.564432     -18.1719      
    168000   2770.8893     -17.526015     -18.600512    
    168500   2813.4137     -17.484869     -18.575856    
    169000   2519.232      -17.506109     -18.483018    
    169500   3208.4302     -17.477095     -18.721261    
    170000   2553.409      -17.467851     -18.458013    
    170500   3008.1654     -17.483961     -18.650469    
    171000   2815.1747     -17.589145     -18.680815    
    171500   2444.8953     -17.523816     -18.471899    
    172000   2449.8646     -17.53198      -18.481989    
    172500   3013.4337     -17.540939     -18.709489    
    173000   3075.8318     -17.496239     -18.688987    
    173500   2978.506      -17.523764     -18.678771    
    174000   2980.4827     -17.551279     -18.707052    
    174500   3033.1531     -17.521201     -18.697398    
    175000   2679.8284     -17.55854      -18.597725    
    175500   3507.3628     -17.576518     -18.936605    
    176000   2350.7055     -17.558704     -18.470262    
    176500   1688.1531     -17.508631     -18.163264    
    177000   3325.3638     -17.500153     -18.789664    
    177500   2783.1299     -17.445587     -18.52483     
    178000   2234.313      -17.439945     -18.306368    
    178500   2733.4376     -17.455162     -18.515135    
    179000   2844.207      -17.413026     -18.515954    
    179500   1825.3391     -17.706911     -18.414741    
    180000   3141.6385     -17.434938     -18.653204    
    180500   2134.7199     -17.421222     -18.249025    
    181000   2633.6616     -17.442746     -18.464029    
    181500   3154.688      -17.460896     -18.684222    
    182000   3037.835      -17.401075     -18.579088    
    182500   2855.3668     -17.452702     -18.559957    
    183000   3340.491      -17.461499     -18.756876    
    183500   2986.4282     -17.473771     -18.631849    
    184000   2804.2992     -17.498148     -18.5856      
    184500   3309.3674     -17.52707      -18.810378    
    185000   2476.7366     -17.549925     -18.510355    
    185500   2621.3757     -17.587173     -18.603692    
    186000   2964.8193     -17.601139     -18.750838    
    186500   2803.2956     -17.540531     -18.627595    
    187000   2543.9363     -17.569207     -18.555696    
    187500   3301.9273     -17.544737     -18.82516     
    188000   2091.8663     -17.471211     -18.282396    
    188500   2237.3913     -17.475007     -18.342623    
    189000   1791.0315     -17.365497     -18.060024    
    189500   2863.0257     -17.293844     -18.404069    
    190000   2810.5365     -17.228473     -18.318345    
    190500   2622.8036     -17.214449     -18.23152     
    191000   2489.7451     -17.322176     -18.28765     
    191500   3150.6318     -17.111371     -18.333124    
    192000   1863.6514     -17.122588     -17.845275    
    192500   2669.3435     -17.122511     -18.157631    
    193000   2266.3907     -17.098461     -17.977323    
    193500   3291.5562     -17.128352     -18.404753    
    194000   3562.562      -17.12453      -18.506022    
    194500   3417.6179     -17.107688     -18.432974    
    195000   3180.9462     -17.141623     -18.375131    
    195500   3099.982      -17.13113      -18.333243    
    196000   2244.145      -17.124841     -17.995077    
    196500   2271.4332     -17.136764     -18.017581    
    197000   3292.7752     -17.095671     -18.372545    
    197500   2550.917      -17.118264     -18.107459    
    198000   4397.5811     -17.133779     -18.839075    
    198500   2958.0575     -17.111459     -18.258536    
    199000   2913.8153     -17.146141     -18.276061    
    199500   3338.0234     -17.206836     -18.501256    
    200000   3661.2276     -17.233067     -18.65282     
Loop time of 8.89407 on 1 procs for 200000 steps with 4 atoms

Performance: 194.287 ns/day, 0.124 hours/ns, 22486.886 timesteps/s, 89.948 katom-step/s
9.7% CPU use with 1 MPI tasks x 1 OpenMP threads

MPI task timing breakdown:
Section |  min time  |  avg time  |  max time  |%varavg| %total
---------------------------------------------------------------
Pair    | 0.36499    | 0.36499    | 0.36499    |   0.0 |  4.10
Neigh   | 0.0080343  | 0.0080343  | 0.0080343  |   0.0 |  0.09
Comm    | 0.01825    | 0.01825    | 0.01825    |   0.0 |  0.21
Output  | 8.1444     | 8.1444     | 8.1444     |   0.0 | 91.57
Modify  | 0.30617    | 0.30617    | 0.30617    |   0.0 |  3.44
Other   |            | 0.05218    |            |       |  0.59

Nlocal:              4 ave           4 max           4 min
Histogram: 1 0 0 0 0 0 0 0 0 0
Nghost:              0 ave           0 max           0 min
Histogram: 1 0 0 0 0 0 0 0 0 0
Neighs:              0 ave           0 max           0 min
Histogram: 1 0 0 0 0 0 0 0 0 0
FullNghs:           12 ave          12 max          12 min
Histogram: 1 0 0 0 0 0 0 0 0 0

Total # of neighbors = 12
Ave neighs/atom = 3
Neighbor list builds = 2703
Dangerous builds = 0
Total wall time: 0:00:08
