LAMMPS (7 Feb 2024 - Update 1)
OMP_NUM_THREADS environment is not set. Defaulting to 1 thread. (src/comm.cpp:98)
  using 1 OpenMP thread(s) per MPI task
#============Initialization=================
units 			metal
atom_style 		atomic
boundary 		p p p

############################################
#              CLI Variables               #
############################################
variable 		seed index 200093          #
variable 		N index 4                  #
variable 		iter index 1000000         #
variable 		iterther index 100000      #
variable 		iexport index 1000         #
variable 		tempchauf index 3000       #
variable 		Tdamp index 0.001          #
variable 		timestep index 0.0001      #
variable 		box_size index 40		   #
############################################
############################################
#=========Simulation box definition=========
lattice 		sc 1.0
Lattice spacing in x,y,z = 1 1 1
region 			bigbox block 0 ${box_size} 0 ${box_size} 0 ${box_size}
region 			bigbox block 0 40 0 ${box_size} 0 ${box_size}
region 			bigbox block 0 40 0 40 0 ${box_size}
region 			bigbox block 0 40 0 40 0 40
create_box 		1 bigbox
Created orthogonal box = (0 0 0) to (40 40 40)
  1 by 1 by 1 MPI processor grid

#==================Atoms====================
region 			safezone block 6 9 6 9 6 9 units box
create_atoms 	1 random ${N} ${seed} safezone
create_atoms 	1 random 4 ${seed} safezone
create_atoms 	1 random 4 200093 safezone
Created 4 atoms
  using lattice units in orthogonal box = (0 0 0) to (40 40 40)
  create_atoms CPU = 0.000 seconds
labelmap 		atom 1 C
mass 			* 12.01



#==========Velocity initialization==========
velocity 		all create 0.0000001 1563967 rot yes dist gaussian

#======Pair style for atom interactions=============
pair_style 		airebo 1.8 1 1
pair_coeff 		* * CH.airebo C
Reading airebo potential file CH.airebo with DATE: 2011-10-25

#==============Neighbor selection===================
neighbor 		0.3 bin
neigh_modify 	every 1 delay 0 check yes



#==============Custom Wall force====================
#==========Wall with harmonic potential=============
#variable       k equal 10.0

#fix             xlo_wall all wall/harmonic xlo EDGE v_k 1.0 0.7
#fix             xhi_wall all wall/harmonic xhi EDGE v_k 1.0 0.7
#fix             ylo_wall all wall/harmonic ylo EDGE v_k 1.0 0.7
#fix             yhi_wall all wall/harmonic yhi EDGE v_k 1.0 0.7
#fix             zlo_wall all wall/harmonic zlo EDGE v_k 1.0 0.7
#fix             zhi_wall all wall/harmonic zhi EDGE v_k 1.0 0.7



#=====================Timestep======================
timestep 		${timestep}
timestep 		0.0001

#===============Define dump command=================
dump 			1 all cfg 100000 ./dump/dump.tensile_*.cfg mass type xs ys zs vx vy vz id

#========System temperature printing info===========
thermo_style 	custom step temp etotal epair pe ke
thermo 			${iexport}	# 1'000'000
thermo 			1000	



#====================CRC Cycle======================

#=============Condensation et chauffe===============

# Minimize during the heating phase
#min_style       sd
#minimize        1.0e-5 1.0e-7 500 1000

fix 			1 all nve
fix 			2 all temp/berendsen 0.0 ${tempchauf} ${Tdamp}
fix 			2 all temp/berendsen 0.0 3000 ${Tdamp}
fix 			2 all temp/berendsen 0.0 3000 0.001
fix             3 all momentum 1 linear 1 1 1 angular rescale

run 			${iter}
run 			1000000
Neighbor list info ...
  update: every = 1 steps, delay = 0 steps, check = yes
  max neighbors/atom: 2000, page size: 100000
  master list distance cutoff = 8.116371
  ghost atom cutoff = 8.116371
  binsize = 4.0581855, bins = 10 10 10
  1 neighbor lists, perpetual/occasional/extra = 1 0 0
  (1) pair airebo, perpetual
      attributes: full, newton on, ghost
      pair build: full/bin/ghost
      stencil: full/ghost/bin/3d
      bin: standard
Per MPI rank memory allocation (min/avg/max) = 3.888 | 3.888 | 3.888 Mbytes
   Step          Temp          TotEng         E_pair         PotEng         KinEng    
         0   1e-07         -0.31227462    -0.31227462    -0.31227462     3.8778043e-11
      1000   20.947518     -15.3018       -15.309923     -15.309923      0.0081230375 
      2000   10.280924     -15.757262     -15.761249     -15.761249      0.0039867413 
      3000   9.5407198     -15.779683     -15.783383     -15.783383      0.0036997045 
      4000   12.730696     -15.795542     -15.800479     -15.800479      0.0049367148 
      5000   13.78236      -15.794163     -15.799507     -15.799507      0.0053445295 
      6000   17.708634     -15.786945     -15.793812     -15.793812      0.0068670618 
      7000   20.307802     -15.790733     -15.798608     -15.798608      0.0078749685 
      8000   23.001875     -15.782427     -15.791347     -15.791347      0.0089196771 
      9000   26.469642     -15.783438     -15.793702     -15.793702      0.010264409  
     10000   29.133634     -15.777755     -15.789052     -15.789052      0.011297453  
     11000   32.821154     -15.775934     -15.788661     -15.788661      0.012727401  
     12000   35.863416     -15.77289      -15.786797     -15.786797      0.013907131  
     13000   39.543497     -15.770239     -15.785573     -15.785573      0.015334194  
     14000   42.817784     -15.768906     -15.785509     -15.785509      0.016603899  
     15000   46.292842     -15.766991     -15.784942     -15.784942      0.017951458  
     16000   49.419331     -15.76636      -15.785524     -15.785524      0.01916385   
     17000   52.550067     -15.765277     -15.785655     -15.785655      0.020377888  
     18000   55.445584     -15.764894     -15.786394     -15.786394      0.021500713  
     19000   58.147804     -15.763797     -15.786346     -15.786346      0.022548581  
     20000   60.927426     -15.762836     -15.786463     -15.786463      0.023626464  
     21000   63.434934     -15.761585     -15.786184     -15.786184      0.024598826  
     22000   65.956199     -15.759531     -15.785107     -15.785107      0.025576524  
     23000   68.593628     -15.757316     -15.783916     -15.783916      0.026599267  
     24000   70.998242     -15.754633     -15.782165     -15.782165      0.027531729  
     25000   73.494225     -15.750972     -15.779471     -15.779471      0.028499623  
     26000   76.156408     -15.747216     -15.776748     -15.776748      0.029531965  
     27000   78.638873     -15.742924     -15.773418     -15.773418      0.030494616  
     28000   81.485532     -15.737885     -15.769483     -15.769483      0.031598495  
     29000   84.54625      -15.732999     -15.765785     -15.765785      0.032785382  
     30000   87.790647     -15.728173     -15.762216     -15.762216      0.034043495  
     31000   91.588918     -15.723745     -15.759261     -15.759261      0.03551639   
     32000   95.584778     -15.720272     -15.757338     -15.757338      0.037065907  
     33000   99.72307      -15.717899     -15.75657      -15.75657       0.038670655  
     34000   103.8968      -15.716844     -15.757133     -15.757133      0.040289146  
     35000   107.58876     -15.71673      -15.758451     -15.758451      0.041720816  
     36000   111.13585     -15.71751      -15.760607     -15.760607      0.043096307  
     37000   114.08328     -15.718691     -15.76293      -15.76293       0.044239264  
     38000   116.67291     -15.719227     -15.76447      -15.76447       0.045243474  
     39000   119.23083     -15.719808     -15.766043     -15.766043      0.046235385  
     40000   121.4084      -15.719852     -15.766932     -15.766932      0.047079802  
     41000   123.65873     -15.718399     -15.766351     -15.766351      0.047952435  
     42000   126.12914     -15.71695      -15.765861     -15.765861      0.048910414  
     43000   128.19439     -15.714547     -15.764259     -15.764259      0.049711277  
     44000   130.56149     -15.710806     -15.761435     -15.761435      0.050629193  
     45000   132.88876     -15.707101     -15.758632     -15.758632      0.051531661  
     46000   134.97058     -15.702064     -15.754403     -15.754403      0.052338951  
     47000   137.45316     -15.69603      -15.749332     -15.749332      0.053301646  
     48000   140.1022      -15.689796     -15.744125     -15.744125      0.05432889   
     49000   143.11267     -15.683304     -15.738801     -15.738801      0.055496292  
     50000   147.04321     -15.676918     -15.733939     -15.733939      0.057020481  
     51000   151.37338     -15.67204      -15.73074      -15.73074       0.058699633  
     52000   156.21161     -15.668714     -15.72929      -15.72929       0.060575805  
     53000   161.17346     -15.667716     -15.730216     -15.730216      0.062499915  
     54000   165.53378     -15.668421     -15.732611     -15.732611      0.064190761  
     55000   169.43527     -15.670703     -15.736407     -15.736407      0.065703681  
     56000   172.33292     -15.673347     -15.740174     -15.740174      0.066827336  
     57000   174.78233     -15.675417     -15.743194     -15.743194      0.067777169  
     58000   176.90123     -15.677244     -15.745843     -15.745843      0.068598836  
     59000   178.7048      -15.677696     -15.746994     -15.746994      0.069298224  
     60000   180.89855     -15.67658      -15.746728     -15.746728      0.070148917  
     61000   183.05478     -15.675398     -15.746383     -15.746383      0.070985061  
     62000   185.13648     -15.672461     -15.744254     -15.744254      0.071792307  
     63000   187.54854     -15.669005     -15.741733     -15.741733      0.072727653  
     64000   189.43163     -15.664703     -15.738161     -15.738161      0.07345788   
     65000   191.38729     -15.658899     -15.733115     -15.733115      0.074216247  
     66000   193.48995     -15.651954     -15.726985     -15.726985      0.075031616  
     67000   195.9274      -15.644277     -15.720253     -15.720253      0.075976811  
     68000   199.09074     -15.636222     -15.713426     -15.713426      0.077203492  
     69000   203.54033     -15.628878     -15.707807     -15.707807      0.07892896   
     70000   208.62691     -15.623704     -15.704606     -15.704606      0.080901434  
     71000   214.32874     -15.621182     -15.704294     -15.704294      0.083112492  
     72000   219.76023     -15.622065     -15.707284     -15.707284      0.085218717  
     73000   224.29646     -15.624852     -15.711829     -15.711829      0.08697778   
     74000   227.52878     -15.629107     -15.717339     -15.717339      0.088231208  
     75000   229.83646     -15.632949     -15.722075     -15.722075      0.089126083  
     76000   231.61283     -15.635583     -15.725398     -15.725398      0.089814924  
     77000   233.136       -15.636923     -15.727329     -15.727329      0.090405581  
     78000   234.84345     -15.636297     -15.727364     -15.727364      0.091067697  
     79000   237.18075     -15.634659     -15.726633     -15.726633      0.091974056  
     80000   239.34501     -15.632286     -15.725099     -15.725099      0.092813311  
     81000   241.64165     -15.628607     -15.722311     -15.722311      0.093703905  
     82000   243.70037     -15.624672     -15.719174     -15.719174      0.094502235  
     83000   245.12317     -15.618417     -15.713471     -15.713471      0.095053968  
     84000   246.87217     -15.611053     -15.706786     -15.706786      0.095732197  
     85000   248.95787     -15.602021     -15.698562     -15.698562      0.096540993  
     86000   252.32963     -15.592539     -15.690388     -15.690388      0.097848496  
     87000   256.89632     -15.584308     -15.683927     -15.683927      0.099619365  
     88000   263.01113     -15.578836     -15.680826     -15.680826      0.10199057   
     89000   269.53017     -15.57753      -15.682048     -15.682048      0.10451853   
     90000   275.179       -15.579711     -15.68642      -15.68642       0.10670903   
     91000   279.45074     -15.585034     -15.6934       -15.6934        0.10836553   
     92000   282.25201     -15.590564     -15.700016     -15.700016      0.10945181   
     93000   283.61182     -15.594801     -15.704781     -15.704781      0.10997911   
     94000   284.76909     -15.597369     -15.707797     -15.707797      0.11042788   
     95000   286.10145     -15.597364     -15.708308     -15.708308      0.11094454   
     96000   288.11613     -15.595747     -15.707473     -15.707473      0.1117258    
     97000   290.59366     -15.593323     -15.70601      -15.70601       0.11268654   
     98000   293.22061     -15.590376     -15.704081     -15.704081      0.11370522   
     99000   295.31151     -15.586709     -15.701225     -15.701225      0.11451602   
    100000   296.58617     -15.581111     -15.696122     -15.696122      0.11501032   
    101000   297.79626     -15.574022     -15.689502     -15.689502      0.11547956   
    102000   299.37293     -15.563865     -15.679956     -15.679956      0.11609097   
    103000   302.32909     -15.553253     -15.67049      -15.67049       0.1172373    
    104000   307.05277     -15.543689     -15.662758     -15.662758      0.11906906   
    105000   313.94405     -15.537401     -15.659142     -15.659142      0.12174136   
    106000   321.02118     -15.536361     -15.660847     -15.660847      0.12448573   
    107000   327.15248     -15.54005      -15.666914     -15.666914      0.12686333   
    108000   331.4134      -15.546929     -15.675444     -15.675444      0.12851563   
    109000   333.5317      -15.553475     -15.682812     -15.682812      0.12933707   
    110000   334.19829     -15.558108     -15.687703     -15.687703      0.12959556   
    111000   334.85332     -15.560049     -15.689898     -15.689898      0.12984957   
    112000   336.18141     -15.558667     -15.689031     -15.689031      0.13036457   
    113000   338.59743     -15.556242     -15.687544     -15.687544      0.13130146   
    114000   341.60427     -15.553493     -15.68596      -15.68596       0.13246745   
    115000   344.43627     -15.550607     -15.684173     -15.684173      0.13356564   
    116000   345.98691     -15.54687      -15.681037     -15.681037      0.13416695   
    117000   346.58842     -15.540408     -15.674808     -15.674808      0.13440021   
    118000   347.52936     -15.531331     -15.666096     -15.666096      0.13476509   
    119000   349.42766     -15.519422     -15.654924     -15.654924      0.13550121   
    120000   353.6263      -15.507816     -15.644946     -15.644946      0.13712936   
    121000   360.34463     -15.499947     -15.639681     -15.639681      0.1397346    
    122000   368.5134      -15.497091     -15.639993     -15.639993      0.14290229   
    123000   375.41505     -15.501071     -15.64665      -15.64665       0.14557861   
    124000   380.02198     -15.508904     -15.656269     -15.656269      0.14736509   
    125000   382.09341     -15.516923     -15.665091     -15.665091      0.14816835   
    126000   382.2929      -15.522282     -15.670527     -15.670527      0.14824571   
    127000   382.1806      -15.523604     -15.671806     -15.671806      0.14820216   
    128000   383.4885      -15.521772     -15.670481     -15.670481      0.14870934   
    129000   386.26437     -15.518367     -15.668152     -15.668152      0.14978577   
    130000   389.96052     -15.515421     -15.66664      -15.66664       0.15121906   
    131000   392.89973     -15.513546     -15.665905     -15.665905      0.15235883   
    132000   394.11114     -15.50978      -15.662609     -15.662609      0.15282859   
    133000   394.16966     -15.503153     -15.656004     -15.656004      0.15285128   
    134000   394.41462     -15.492494     -15.64544      -15.64544       0.15294627   
    135000   397.08816     -15.479421     -15.633404     -15.633404      0.15398302   
    136000   402.40068     -15.467511     -15.623554     -15.623554      0.15604311   
    137000   410.34667     -15.460797     -15.619922     -15.619922      0.15912441   
    138000   419.05322     -15.46232      -15.62482      -15.62482       0.16250064   
    139000   425.45544     -15.469255     -15.634238     -15.634238      0.16498329   
    140000   428.18944     -15.479007     -15.645051     -15.645051      0.16604349   
    141000   428.32276     -15.48659      -15.652686     -15.652686      0.16609519   
    142000   427.71137     -15.489131     -15.654989     -15.654989      0.1658581    
    143000   427.97508     -15.486955     -15.652915     -15.652915      0.16596036   
    144000   430.58873     -15.482824     -15.649798     -15.649798      0.16697389   
    145000   435.10437     -15.479537     -15.648262     -15.648262      0.16872496   
    146000   438.83936     -15.477989     -15.648162     -15.648162      0.17017332   
    147000   440.09002     -15.476009     -15.646667     -15.646667      0.1706583    
    148000   439.70232     -15.47032      -15.640828     -15.640828      0.17050796   
    149000   439.4605      -15.459474     -15.629888     -15.629888      0.17041418   
    150000   441.31357     -15.445211     -15.616344     -15.616344      0.17113277   
    151000   447.05247     -15.432626     -15.605984     -15.605984      0.1733582    
    152000   456.05288     -15.426053     -15.602901     -15.602901      0.17684838   
    153000   465.05487     -15.428035     -15.608375     -15.608375      0.18033918   
    154000   471.02559     -15.437556     -15.620211     -15.620211      0.18265451   
    155000   473.12695     -15.448199     -15.631669     -15.631669      0.18346937   
    156000   472.22113     -15.454913     -15.638031     -15.638031      0.18311812   
    157000   470.81295     -15.455437     -15.638009     -15.638009      0.18257205   
    158000   471.60226     -15.450957     -15.633835     -15.633835      0.18287813   
    159000   475.8717      -15.445775     -15.630309     -15.630309      0.18453373   
    160000   481.18174     -15.44344      -15.630033     -15.630033      0.18659286   
    161000   484.29484     -15.443455     -15.631255     -15.631255      0.18780006   
    162000   484.26362     -15.441283     -15.629071     -15.629071      0.18778796   
    163000   482.79674     -15.4329       -15.620119     -15.620119      0.18721913   
    164000   482.94333     -15.419282     -15.606558     -15.606558      0.18727597   
    165000   487.16003     -15.404328     -15.593239     -15.593239      0.18891113   
    166000   495.78185     -15.394176     -15.58643      -15.58643       0.1922545    
    167000   505.60971     -15.393738     -15.589804     -15.589804      0.19606555   
    168000   513.10979     -15.402705     -15.601679     -15.601679      0.19897394   
    169000   516.04468     -15.414709     -15.614821     -15.614821      0.20011203   
    170000   514.68296     -15.422929     -15.622513     -15.622513      0.19958398   
    171000   512.41109     -15.423597     -15.6223       -15.6223        0.19870299   
    172000   512.68279     -15.418041     -15.61685      -15.61685       0.19880836   
    173000   517.31409     -15.411341     -15.611946     -15.611946      0.20060428   
    174000   523.85815     -15.409152     -15.612294     -15.612294      0.20314194   
    175000   527.33982     -15.410827     -15.615319     -15.615319      0.20449206   
    176000   526.68577     -15.409593     -15.613831     -15.613831      0.20423844   
    177000   524.47258     -15.401227     -15.604608     -15.604608      0.2033802    
    178000   524.43179     -15.386381     -15.589745     -15.589745      0.20336439   
    179000   529.61001     -15.370738     -15.57611      -15.57611       0.2053724    
    180000   539.25879     -15.361836     -15.57095      -15.57095       0.20911401   
    181000   549.4253      -15.364305     -15.577362     -15.577362      0.21305638   
    182000   556.06424     -15.375993     -15.591624     -15.591624      0.21563083   
    183000   556.91935     -15.388383     -15.604345     -15.604345      0.21596243   
    184000   554.01029     -15.393902     -15.608736     -15.608736      0.21483435   
    185000   551.65122     -15.390269     -15.604189     -15.604189      0.21391955   
    186000   553.96557     -15.381476     -15.596293     -15.596293      0.21481701   
    187000   561.40917     -15.37585      -15.593553     -15.593553      0.21770349   
    188000   567.77726     -15.377419     -15.597592     -15.597592      0.22017291   
    189000   568.64109     -15.380235     -15.600743     -15.600743      0.22050789   
    190000   565.86305     -15.376046     -15.595476     -15.595476      0.21943062   
    191000   563.86711     -15.362887     -15.581544     -15.581544      0.21865663   
    192000   566.95535     -15.345579     -15.565433     -15.565433      0.21985419   
    193000   575.97769     -15.333556     -15.556909     -15.556909      0.22335288   
    194000   587.19073     -15.333081     -15.560782     -15.560782      0.22770108   
    195000   595.16602     -15.344096     -15.57489      -15.57489       0.23079374   
    196000   596.64546     -15.358133     -15.5895       -15.5895        0.23136744   
    197000   593.15561     -15.364886     -15.5949       -15.5949        0.23001414   
    198000   589.83478     -15.360472     -15.589199     -15.589199      0.22872639   
    199000   591.83821     -15.349659     -15.579162     -15.579162      0.22950328   
    200000   600.49986     -15.343032     -15.575894     -15.575894      0.2328621    
    201000   608.09185     -15.34601      -15.581816     -15.581816      0.23580612   
    202000   608.38819     -15.350772     -15.586693     -15.586693      0.23592104   
    203000   604.54355     -15.347029     -15.581459     -15.581459      0.23443016   
    204000   602.40722     -15.332672     -15.566274     -15.566274      0.23360173   
    205000   606.53683     -15.315262     -15.550465     -15.550465      0.23520312   
    206000   616.84242     -15.305961     -15.54516      -15.54516       0.23919942   
    207000   627.9461      -15.312297     -15.555802     -15.555802      0.24350521   
    208000   633.59868     -15.32831      -15.574007     -15.574007      0.24569717   
    209000   629.90659     -15.340505     -15.58477      -15.58477       0.24426545   
    210000   623.00896     -15.334142     -15.575732     -15.575732      0.24159068   
    211000   624.5583      -15.314074     -15.556266     -15.556266      0.24219149   
    212000   644.79286     -15.313862     -15.5639       -15.5639        0.25003805   
    213000   644.59277     -15.33013      -15.580091     -15.580091      0.24996047   
    214000   636.91512     -15.328389     -15.575372     -15.575372      0.24698322   
    215000   638.29328     -15.311052     -15.55857      -15.55857       0.24751765   
    216000   647.8985      -15.301694     -15.552937     -15.552937      0.25124236   
    217000   657.97167     -15.308791     -15.56394      -15.56394       0.25514854   
    218000   658.42807     -15.323744     -15.579069     -15.579069      0.25532553   
    219000   648.10501     -15.316328     -15.567651     -15.567651      0.25132244   
    220000   636.40658     -15.283246     -15.530032     -15.530032      0.24678602   
    221000   675.27038     -15.295471     -15.557327     -15.557327      0.26185664   
    222000   669.4373      -15.31506      -15.574654     -15.574654      0.25959469   
    223000   662.17188     -15.306455     -15.563232     -15.563232      0.2567773    
    224000   668.56725     -15.29016      -15.549418     -15.549418      0.2592573    
    225000   678.53021     -15.288295     -15.551416     -15.551416      0.26312074   
    226000   685.30005     -15.302277     -15.568023     -15.568023      0.26574595   
    227000   675.7326      -15.305036     -15.567072     -15.567072      0.26203588   
    228000   670.42111     -15.275104     -15.53508      -15.53508       0.25997619   
    229000   703.0568      -15.264382     -15.537014     -15.537014      0.27263167   
    230000   698.50411     -15.293542     -15.564408     -15.564408      0.27086623   
    231000   687.69207     -15.293924     -15.560598     -15.560598      0.26667353   
    232000   690.86258     -15.275849     -15.543752     -15.543752      0.26790299   
    233000   700.61416     -15.269315     -15.540999     -15.540999      0.27168446   
    234000   710.02133     -15.280541     -15.555873     -15.555873      0.27533238   
    235000   703.06        -15.28959      -15.562223     -15.562223      0.27263291   
    236000   693.09802     -15.26336      -15.53213      -15.53213       0.26876985   
    237000   740.82028     -15.227158     -15.514434     -15.514434      0.28727561   
    238000   726.73825     -15.2678       -15.549615     -15.549615      0.28181488   
    239000   714.85872     -15.279032     -15.55624      -15.55624       0.27720822   
    240000   712.9607      -15.261812     -15.538284     -15.538284      0.27647221   
    241000   722.43932     -15.250069     -15.530216     -15.530216      0.28014783   
    242000   733.42319     -15.256158     -15.540565     -15.540565      0.28440717   
    243000   732.32687     -15.271532     -15.555514     -15.555514      0.28398203   
    244000   718.49449     -15.256187     -15.534805     -15.534805      0.27861811   
    245000   706.48454     -15.202495     -15.476455     -15.476455      0.27396088   
    246000   754.41832     -15.233732     -15.526281     -15.526281      0.29254866   
    247000   745.96781     -15.260012     -15.549284     -15.549284      0.28927172   
    248000   736.31517     -15.251626     -15.537155     -15.537155      0.28552862   
    249000   742.85041     -15.233064     -15.521126     -15.521126      0.28806286   
    250000   753.81892     -15.230117     -15.522434     -15.522434      0.29231623   
    251000   761.65618     -15.245778     -15.541134     -15.541134      0.29535537   
    252000   750.48379     -15.249828     -15.540851     -15.540851      0.29102293   
    253000   742.39295     -15.217018     -15.504904     -15.504904      0.28788546   
    254000   801.1621      -15.184083     -15.494758     -15.494758      0.31067499   
    255000   778.93966     -15.227865     -15.529923     -15.529923      0.30205756   
    256000   766.22892     -15.242602     -15.539731     -15.539731      0.29712859   
    257000   763.03159     -15.223101     -15.51899      -15.51899       0.29588872   
    258000   773.21065     -15.209201     -15.509037     -15.509037      0.29983596   
    259000   786.72588     -15.217478     -15.522555     -15.522555      0.3050769    
    260000   785.1754      -15.230843     -15.535318     -15.535318      0.30447566   
    261000   770.33182     -15.223627     -15.522346     -15.522346      0.29871961   
    262000   750.02514     -15.161077     -15.451922     -15.451922      0.29084508   
    263000   803.75082     -15.196897     -15.508576     -15.508576      0.31167884   
    264000   801.98416     -15.215637     -15.526631     -15.526631      0.31099377   
    265000   786.27279     -15.220506     -15.525407     -15.525407      0.3049012    
    266000   796.42396     -15.194813     -15.503651     -15.503651      0.30883763   
    267000   809.31356     -15.186974     -15.50081      -15.50081       0.31383596   
    268000   809.66763     -15.212371     -15.526344     -15.526344      0.31397327   
    269000   805.82114     -15.20921      -15.521692     -15.521692      0.31248167   
    270000   788.96067     -15.171991     -15.477934     -15.477934      0.30594351   
    271000   838.91623     -15.17345      -15.498765     -15.498765      0.3253153    
    272000   829.61772     -15.175625     -15.497334     -15.497334      0.32170952   
    273000   807.32062     -15.227362     -15.540425     -15.540425      0.31306314   
    274000   819.17378     -15.171781     -15.48944      -15.48944       0.31765956   
    275000   833.63341     -15.18267      -15.505937     -15.505937      0.32326672   
    276000   837.14909     -15.190051     -15.514681     -15.514681      0.32463004   
    277000   831.39734     -15.192865     -15.515265     -15.515265      0.32239962   
    278000   809.82692     -15.181699     -15.495734     -15.495734      0.31403504   
    279000   888.72551     -15.117792     -15.462422     -15.462422      0.34463036   
    280000   847.43988     -15.193116     -15.521736     -15.521736      0.32862061   
    281000   834.45451     -15.177337     -15.500922     -15.500922      0.32358513   
    282000   841.58145     -15.168472     -15.494821     -15.494821      0.32634882   
    283000   850.57906     -15.166099     -15.495937     -15.495937      0.32983792   
    284000   870.59906     -15.187206     -15.524807     -15.524807      0.33760128   
    285000   847.64138     -15.168587     -15.497286     -15.497286      0.32869874   
    286000   828.92749     -15.150316     -15.471758     -15.471758      0.32144186   
    287000   904.7374      -15.114483     -15.465323     -15.465323      0.35083946   
    288000   864.69115     -15.156746     -15.492056     -15.492056      0.33531031   
    289000   868.65766     -15.1707       -15.507548     -15.507548      0.33684844   
    290000   861.26029     -15.126252     -15.460232     -15.460232      0.33397989   
    291000   868.80536     -15.141103     -15.478008     -15.478008      0.33690572   
    292000   889.45301     -15.161891     -15.506803     -15.506803      0.34491247   
    293000   869.30351     -15.138722     -15.475821     -15.475821      0.33709889   
    294000   833.58986     -15.119838     -15.443088     -15.443088      0.32324984   
    295000   905.47413     -15.109291     -15.460416     -15.460416      0.35112515   
    296000   888.78415     -15.147908     -15.492561     -15.492561      0.34465311   
    297000   885.85778     -15.140001     -15.483519     -15.483519      0.34351831   
    298000   884.034       -15.097067     -15.439879     -15.439879      0.34281109   
    299000   900.80236     -15.107356     -15.45667      -15.45667       0.34931353   
    300000   901.97779     -15.169667     -15.519436     -15.519436      0.34976934   
    301000   886.92436     -15.071312     -15.415243     -15.415243      0.34393191   
    302000   932.28899     -15.099957     -15.46148      -15.46148       0.36152343   
    303000   939.104       -15.098999     -15.463165     -15.463165      0.36416616   
    304000   913.51541     -15.154911     -15.509154     -15.509154      0.3542434    
    305000   913.14875     -15.111001     -15.465102     -15.465102      0.35410122   
    306000   946.06147     -15.078835     -15.445699     -15.445699      0.36686413   
    307000   925.53291     -15.132569     -15.491472     -15.491472      0.35890356   
    308000   913.17915     -15.133563     -15.487676     -15.487676      0.35411301   
    309000   924.13177     -15.03081      -15.389171     -15.389171      0.35836022   
    310000   940.93143     -15.114401     -15.479276     -15.479276      0.3648748    
    311000   924.07633     -15.110962     -15.4693       -15.4693        0.35833872   
    312000   928.5456      -15.11814      -15.478212     -15.478212      0.36007182   
    313000   937.00591     -15.113049     -15.476401     -15.476401      0.36335256   
    314000   952.82125     -15.140549     -15.510034     -15.510034      0.36948544   
    315000   934.04003     -15.08973      -15.451932     -15.451932      0.36220245   
    316000   931.60112     -15.023531     -15.384788     -15.384788      0.36125669   
    317000   978.30727     -15.12061      -15.499979     -15.499979      0.37936842   
    318000   939.90564     -15.089536     -15.454013     -15.454013      0.36447702   
    319000   942.01594     -15.055173     -15.420468     -15.420468      0.36529535   
    320000   971.05711     -15.10584      -15.482397     -15.482397      0.37655695   
    321000   970.93348     -15.083054     -15.459563     -15.459563      0.37650901   
    322000   925.70739     -15.054587     -15.413558     -15.413558      0.35897122   
    323000   993.68964     -15.075707     -15.46104      -15.46104       0.3853334    
    324000   988.6289      -15.066496     -15.449867     -15.449867      0.38337094   
    325000   962.737       -15.1081       -15.481431     -15.481431      0.37333057   
    326000   978.29556     -15.09057      -15.469934     -15.469934      0.37936388   
    327000   992.57878     -15.118607     -15.503509     -15.503509      0.38490263   
    328000   966.77447     -15.039356     -15.414253     -15.414253      0.37489623   
    329000   990.96679     -14.990295     -15.374573     -15.374573      0.38427753   
    330000   1001.5016     -15.090797     -15.47916      -15.47916       0.38836271   
    331000   1001.2884     -15.107912     -15.496192     -15.496192      0.38828005   
    332000   1003.6276     -15.080486     -15.469673     -15.469673      0.38918716   
    333000   1016.7696     -15.074065     -15.468348     -15.468348      0.39428335   
    334000   986.50957     -15.059058     -15.441607     -15.441607      0.38254911   
    335000   1010.5573     -14.935431     -15.327306     -15.327306      0.39187436   
    336000   1019.6257     -15.120535     -15.515926     -15.515926      0.3953909    
    337000   1023.8579     -15.060103     -15.457135     -15.457135      0.39703205   
    338000   1033.3695     -15.060452     -15.461173     -15.461173      0.40072047   
    339000   1000.7666     -15.040848     -15.428926     -15.428926      0.38807772   
    340000   999.20437     -15.049098     -15.43657      -15.43657       0.3874719    
    341000   1049.3109     -14.969462     -15.376365     -15.376365      0.40690222   
    342000   1029.9132     -15.089626     -15.489006     -15.489006      0.39938019   
    343000   1036.104      -15.10424      -15.506021     -15.506021      0.40178085   
    344000   1044.9295     -15.07462      -15.479823     -15.479823      0.40520322   
    345000   1007.6272     -15.002737     -15.393475     -15.393475      0.39073812   
    346000   1079.7714     -14.984611     -15.403325     -15.403325      0.41871423   
    347000   1041.1814     -15.056868     -15.460618     -15.460618      0.40374979   
    348000   1038.6946     -15.050784     -15.453569     -15.453569      0.40278546   
    349000   1041.2942     -15.070721     -15.474515     -15.474515      0.40379353   
    350000   988.6091      -15.006407     -15.38977      -15.38977       0.38336327   
    351000   1100.4744     -15.014885     -15.441627     -15.441627      0.42674243   
    352000   1065.4354     -15.084498     -15.497653     -15.497653      0.41315501   
    353000   1053.8385     -15.089825     -15.498483     -15.498483      0.40865796   
    354000   1050.4705     -15.062698     -15.47005      -15.47005       0.40735192   
    355000   1078.215      -14.912583     -15.330694     -15.330694      0.41811066   
    356000   1080.6191     -15.048921     -15.467964     -15.467964      0.41904293   
    357000   1077.8171     -15.060988     -15.478944     -15.478944      0.41795637   
    358000   1070.1974     -15.06971      -15.484711     -15.484711      0.41500159   
    359000   1067.7078     -14.854441     -15.268478     -15.268478      0.41403621   
    360000   1078.828      -15.00187      -15.420219     -15.420219      0.41834838   
    361000   1071.3384     -15.110717     -15.526161     -15.526161      0.41544406   
    362000   1066.3042     -15.046071     -15.459563     -15.459563      0.41349189   
    363000   1137.6181     -14.935262     -15.376408     -15.376408      0.44114604   
    364000   1109.5018     -15.088071     -15.518315     -15.518315      0.4302431    
    365000   1090.2549     -15.07529      -15.49807      -15.49807       0.42277952   
    366000   1040.0922     -14.953025     -15.356352     -15.356352      0.4033274    
    367000   1123.1921     -14.988986     -15.424538     -15.424538      0.43555192   
    368000   1114.4086     -15.146271     -15.578417     -15.578417      0.43214585   
    369000   1103.158      -15.033644     -15.461427     -15.461427      0.4277831    
    370000   1053.8978     -14.799602     -15.208283     -15.208283      0.40868095   
    371000   1108.3947     -15.029907     -15.459721     -15.459721      0.42981376   
    372000   1112.1373     -15.004981     -15.436246     -15.436246      0.43126507   
    373000   1090.5382     -14.969776     -15.392665     -15.392665      0.42288939   
    374000   1116.7766     -14.96532      -15.398384     -15.398384      0.43306411   
    375000   1145.2762     -14.980556     -15.424672     -15.424672      0.4441157    
    376000   1117.9488     -14.987582     -15.4211       -15.4211        0.43351867   
    377000   1136.4735     -15.011168     -15.45187      -15.45187       0.44070218   
    378000   1147.27       -14.901775     -15.346663     -15.346663      0.44488887   
    379000   1154.4856     -15.091175     -15.538862     -15.538862      0.44768694   
    380000   1158.5373     -14.972411     -15.421669     -15.421669      0.44925809   
    381000   1114.1611     -14.989995     -15.422045     -15.422045      0.43204989   
    382000   1163.0627     -14.923021     -15.374034     -15.374034      0.45101297   
    383000   1145.4702     -15.024104     -15.468295     -15.468295      0.44419093   
    384000   1170.0009     -14.947094     -15.400798     -15.400798      0.45370346   
    385000   1120.2612     -14.977307     -15.411723     -15.411723      0.43441538   
    386000   1196.0102     -14.926516     -15.390305     -15.390305      0.46378934   
    387000   1156.1355     -14.924468     -15.372795     -15.372795      0.44832674   
    388000   1108.7378     -15.026932     -15.456878     -15.456878      0.42994681   
    389000   1169.623      -14.938727     -15.392284     -15.392284      0.4535569    
    390000   1069.8586     -14.766576     -15.181446     -15.181446      0.41487023   
    391000   1176.8735     -14.929007     -15.385376     -15.385376      0.45636852   
    392000   1167.5807     -15.06434      -15.517105     -15.517105      0.45276494   
    393000   1109.6085     -14.934893     -15.365178     -15.365178      0.43028445   
    394000   1210.4345     -14.920213     -15.389596     -15.389596      0.46938282   
    395000   1179.1956     -15.066782     -15.524051     -15.524051      0.45726899   
    396000   1170.7856     -14.948745     -15.402753     -15.402753      0.45400774   
    397000   1211.339      -14.806878     -15.276612     -15.276612      0.46973356   
    398000   1188.5534     -15.00728      -15.468178     -15.468178      0.46089776   
    399000   1197.5914     -15.011146     -15.475549     -15.475549      0.46440251   
    400000   1107.4327     -14.843224     -15.272665     -15.272665      0.42944075   
    401000   1229.1633     -14.892773     -15.369418     -15.369418      0.47664548   
    402000   1178.103      -15.014471     -15.471316     -15.471316      0.45684528   
    403000   1226.481      -14.893236     -15.368842     -15.368842      0.47560532   
    404000   1199.1605     -14.919205     -15.384216     -15.384216      0.46501098   
    405000   1201.7509     -15.055994     -15.52201      -15.52201       0.46601549   
    406000   1161.0607     -14.929475     -15.379712     -15.379712      0.45023664   
    407000   1207.7571     -14.89671      -15.365054     -15.365054      0.46834458   
    408000   1252.5165     -14.885835     -15.371537     -15.371537      0.4857014    
    409000   1162.9891     -14.947639     -15.398623     -15.398623      0.45098442   
    410000   1169.6136     -14.915422     -15.368976     -15.368976      0.45355325   
    411000   1309.5765     -14.776956     -15.284784     -15.284784      0.50782816   
    412000   1215.2758     -14.973865     -15.445126     -15.445126      0.47126017   
    413000   1235.7334     -14.965878     -15.445071     -15.445071      0.47919325   
    414000   1197.9289     -14.916322     -15.380855     -15.380855      0.46453337   
    415000   1278.8724     -14.855293     -15.351214     -15.351214      0.4959217    
    416000   1260.8198     -15.082524     -15.571446     -15.571446      0.48892125   
    417000   1284.9369     -14.732132     -15.230405     -15.230405      0.4982734    
    418000   1071.5211     -14.668704     -15.084219     -15.084219      0.4155149    
    419000   1302.9503     -14.9553       -15.460558     -15.460558      0.50525865   
    420000   1276.0122     -14.763666     -15.258478     -15.258478      0.49481255   
    421000   1297.7653     -14.929526     -15.432774     -15.432774      0.50324799   
    422000   1241.3987     -14.650259     -15.131649     -15.131649      0.48139011   
    423000   1240.3169     -14.892462     -15.373433     -15.373433      0.48097061   
    424000   1257.1335     -14.94053      -15.428022     -15.428022      0.48749179   
    425000   1255.1446     -14.924088     -15.410809     -15.410809      0.4867205    
    426000   1371.5139     -14.843742     -15.375589     -15.375589      0.53184627   
    427000   1306.502      -14.79493      -15.301566     -15.301566      0.50663591   
    428000   1183.6416     -14.99241      -15.451403     -15.451403      0.45899304   
    429000   1348.7824     -14.764277     -15.287309     -15.287309      0.52303144   
    430000   1345.1737     -14.798092     -15.319724     -15.319724      0.52163203   
    431000   1299.4522     -14.970325     -15.474227     -15.474227      0.50390215   
    432000   1301.1161     -14.908813     -15.413361     -15.413361      0.50454735   
    433000   1249.5276     -14.911519     -15.396061     -15.396061      0.48454234   
    434000   1391.2737     -14.845626     -15.385135     -15.385135      0.53950871   
    435000   1351.0199     -14.827824     -15.351723     -15.351723      0.52389907   
    436000   1274.5198     -14.912732     -15.406966     -15.406966      0.49423385   
    437000   1178.1124     -14.614523     -15.071372     -15.071372      0.45684893   
    438000   1346.5186     -14.930539     -15.452693     -15.452693      0.52215357   
    439000   1358.8569     -14.924163     -15.451101     -15.451101      0.52693812   
    440000   1286.6534     -14.847631     -15.34657      -15.34657       0.498939     
    441000   1408.5242     -14.542228     -15.088426     -15.088426      0.54619811   
    442000   1303.9526     -14.980021     -15.485668     -15.485668      0.5056473    
    443000   1358.6629     -14.853209     -15.380072     -15.380072      0.52686288   
    444000   1239.6734     -14.735233     -15.215954     -15.215954      0.48072109   
    445000   1371.5241     -14.772926     -15.304776     -15.304776      0.5318502    
    446000   1291.4003     -15.001335     -15.502115     -15.502115      0.50077977   
    447000   1256.8015     -14.813936     -15.301299     -15.301299      0.48736305   
    448000   1354.5412     -14.638181     -15.163446     -15.163446      0.52526459   
    449000   1349.7195     -14.953259     -15.476654     -15.476654      0.52339481   
    450000   1323.0234     -14.881607     -15.39465      -15.39465       0.51304258   
    451000   1332.4182     -14.803433     -15.320119     -15.320119      0.51668571   
    452000   1508.7784     -14.646359     -15.231434     -15.231434      0.58507475   
    453000   1379.606      -14.883596     -15.41858      -15.41858       0.53498422   
    454000   1345.7707     -14.855286     -15.377149     -15.377149      0.52186354   
    455000   1211.1217     -14.502644     -14.972293     -14.972293      0.46964928   
    456000   1380.6288     -14.981481     -15.516862     -15.516862      0.53538085   
    457000   1338.805      -14.828285     -15.347447     -15.347447      0.51916238   
    458000   1348.8862     -14.889848     -15.412919     -15.412919      0.52307167   
    459000   1453.8207     -14.586469     -15.150232     -15.150232      0.56376323   
    460000   1353.9264     -14.82342      -15.348446     -15.348446      0.52502618   
    461000   1398.3133     -14.892428     -15.434667     -15.434667      0.54223853   
    462000   1286.5323     -14.559376     -15.058268     -15.058268      0.49889206   
    463000   1467.8451     -14.776582     -15.345784     -15.345784      0.56920162   
    464000   1413.7288     -14.834497     -15.382714     -15.382714      0.54821636   
    465000   1350.2853     -14.844371     -15.367985     -15.367985      0.52361423   
    466000   1446.572      -14.495182     -15.056134     -15.056134      0.5609523    
    467000   1419.8975     -14.798419     -15.349027     -15.349027      0.55060846   
    468000   1391.8799     -14.918045     -15.457788     -15.457788      0.53974379   
    469000   1389.596      -14.788331     -15.327189     -15.327189      0.53885815   
    470000   1515.9942     -14.679745     -15.267618     -15.267618      0.58787288   
    471000   1400.1698     -14.865818     -15.408777     -15.408777      0.54295845   
    472000   1420.7953     -14.787993     -15.33895      -15.33895       0.5509566    
    473000   1344.8685     -14.723245     -15.244759     -15.244759      0.5215137    
    474000   1487.0636     -14.731624     -15.308278     -15.308278      0.57665416   
    475000   1430.6265     -14.815942     -15.370711     -15.370711      0.55476896   
    476000   1417.5845     -14.827176     -15.376888     -15.376888      0.54971153   
    477000   1311.5149     -14.676006     -15.184586     -15.184586      0.50857981   
    478000   1520.9308     -14.706199     -15.295987     -15.295987      0.58978721   
    479000   1429.8336     -14.843512     -15.397974     -15.397974      0.55446148   
    480000   1413.0085     -14.764017     -15.311954     -15.311954      0.54793704   
    481000   1356.5448     -14.446733     -14.972774     -14.972774      0.52604155   
    482000   1448.613      -14.880573     -15.442317     -15.442317      0.5617438    
    483000   1414.8298     -14.753532     -15.302175     -15.302175      0.54864333   
    484000   1421.3916     -14.829053     -15.380241     -15.380241      0.55118786   
    485000   1609.2557     -14.660531     -15.284569     -15.284569      0.62403786   
    486000   1470.0539     -14.77504      -15.345099     -15.345099      0.57005814   
    487000   1462.0052     -14.839931     -15.406868     -15.406868      0.56693701   
    488000   1391.8006     -14.671332     -15.211045     -15.211045      0.53971304   
    489000   1542.5068     -14.696265     -15.294419     -15.294419      0.59815397   
    490000   1467.6772     -14.818274     -15.38741      -15.38741       0.56913649   
    491000   1495.4434     -14.762486     -15.34239      -15.34239       0.5799037    
    492000   1352.3162     -14.637384     -15.161786     -15.161786      0.52440175   
    493000   1525.2294     -14.721446     -15.3129       -15.3129        0.59145412   
    494000   1520.4314     -14.72459      -15.314183     -15.314183      0.58959353   
    495000   1466.0701     -14.83173      -15.400243     -15.400243      0.56851329   
    496000   1384.6578     -14.437704     -14.974647     -14.974647      0.53694319   
    497000   1504.0342     -14.774121     -15.357356     -15.357356      0.58323502   
    498000   1495.447      -14.801949     -15.381854     -15.381854      0.57990508   
    499000   1533.7275     -14.68468      -15.27943      -15.27943       0.59474951   
    500000   1550.2099     -14.524627     -15.125768     -15.125768      0.60114108   
    501000   1467.8658     -14.767411     -15.33662      -15.33662       0.56920966   
    502000   1540.2658     -14.765829     -15.363114     -15.363114      0.59728495   
    503000   1383.0713     -14.588403     -15.124731     -15.124731      0.53632798   
    504000   1607.3817     -14.690762     -15.314074     -15.314074      0.62331117   
    505000   1567.4537     -14.682322     -15.29015      -15.29015       0.60782789   
    506000   1450.6593     -14.785726     -15.348263     -15.348263      0.56253731   
    507000   1611.2086     -14.466343     -15.091138     -15.091138      0.62479516   
    508000   1569.7757     -14.811126     -15.419855     -15.419855      0.60872831   
    509000   1524.3686     -14.81177      -15.402891     -15.402891      0.59112031   
    510000   1507.6863     -14.662058     -15.246709     -15.246709      0.58465127   
    511000   1622.3621     -14.711689     -15.340809     -15.340809      0.6291203    
    512000   1587.867      -14.774924     -15.390668     -15.390668      0.61574377   
    513000   1546.1595     -14.70712      -15.306691     -15.306691      0.59957042   
    514000   1629.7078     -14.405797     -15.037766     -15.037766      0.63196878   
    515000   1479.4111     -14.694073     -15.26776      -15.26776       0.5736867    
    516000   1588.0736     -14.803057     -15.41888      -15.41888       0.61582389   
    517000   1452.7892     -14.514002     -15.077366     -15.077366      0.56336325   
    518000   1563.1711     -14.731865     -15.338032     -15.338032      0.60616719   
    519000   1588.9233     -14.760178     -15.376331     -15.376331      0.61615338   
    520000   1559.2196     -14.733462     -15.338097     -15.338097      0.60463485   
    521000   1499.6671     -14.304571     -14.886112     -14.886112      0.58154156   
    522000   1591.8163     -14.786221     -15.403496     -15.403496      0.61727521   
    523000   1529.4092     -14.698429     -15.291504     -15.291504      0.59307495   
    524000   1536.3434     -14.664326     -15.26009      -15.26009       0.5957639    
    525000   1606.6714     -14.579065     -15.202101     -15.202101      0.62303573   
    526000   1565.3528     -14.621426     -15.228439     -15.228439      0.60701321   
    527000   1570.9319     -14.77384      -15.383017     -15.383017      0.60917667   
    528000   1424.4182     -14.44789      -15.000251     -15.000251      0.55236151   
    529000   1622.4443     -14.668283     -15.297435     -15.297435      0.62915215   
    530000   1584.5659     -14.720729     -15.335193     -15.335193      0.61446365   
    531000   1550.8613     -14.558475     -15.159869     -15.159869      0.60139368   
    532000   1661.4378     -14.497066     -15.141339     -15.141339      0.64427307   
    533000   1588.2096     -14.690084     -15.30596      -15.30596       0.61587662   
    534000   1644.6328     -14.746993     -15.38475      -15.38475       0.63775641   
    535000   1578.3974     -14.360571     -14.972643     -14.972643      0.61207163   
    536000   1642.9951     -14.668125     -15.305247     -15.305247      0.63712136   
    537000   1611.9052     -14.665886     -15.290951     -15.290951      0.6250653    
    538000   1534.3762     -14.567937     -15.162938     -15.162938      0.59500109   
    539000   1650.0819     -14.579289     -15.219158     -15.219158      0.63986949   
    540000   1604.8346     -14.785072     -15.407396     -15.407396      0.62232347   
    541000   1625.9183     -14.531571     -15.16207      -15.16207       0.63049931   
    542000   1768.0534     -14.421943     -15.107559     -15.107559      0.68561653   
    543000   1605.2443     -14.721403     -15.343886     -15.343886      0.62248233   
    544000   1632.0188     -14.65294      -15.285805     -15.285805      0.63286496   
    545000   1480.0356     -14.506836     -15.080764     -15.080764      0.57392886   
    546000   1708.0716     -14.620646     -15.283003     -15.283003      0.66235675   
    547000   1663.6188     -14.752764     -15.397883     -15.397883      0.64511884   
    548000   1660.3985     -14.609006     -15.252876     -15.252876      0.64387005   
    549000   1794.9185     -14.382334     -15.078368     -15.078368      0.69603426   
    550000   1608.6606     -14.674502     -15.298309     -15.298309      0.62380711   
    551000   1671.9147     -14.712045     -15.360381     -15.360381      0.6483358    
    552000   1609.1835     -14.293968     -14.917978     -14.917978      0.62400989   
    553000   1675.4699     -14.63021      -15.279924     -15.279924      0.64971444   
    554000   1650.2065     -14.63065      -15.270568     -15.270568      0.63991781   
    555000   1515.0646     -14.507295     -15.094808     -15.094808      0.58751241   
    556000   1762.4507     -14.510514     -15.193958     -15.193958      0.68344388   
    557000   1604.7325     -14.62152      -15.243804     -15.243804      0.62228388   
    558000   1683.1422     -14.68647      -15.33916      -15.33916       0.65268963   
    559000   1841.9979     -14.442211     -15.156502     -15.156502      0.71429073   
    560000   1599.7272     -14.621033     -15.241376     -15.241376      0.62034292   
    561000   1688.0316     -14.653894     -15.30848      -15.30848       0.65458563   
    562000   1635.8696     -14.293189     -14.927547     -14.927547      0.63435824   
    563000   1719.8942     -14.633954     -15.300895     -15.300895      0.66694133   
    564000   1711.0483     -14.63182      -15.295331     -15.295331      0.66351107   
    565000   1615.9114     -14.513298     -15.139917     -15.139917      0.62661881   
    566000   1767.9092     -14.501274     -15.186835     -15.186835      0.6855606    
    567000   1729.3008     -14.722835     -15.393424     -15.393424      0.67058902   
    568000   1705.4566     -14.639546     -15.300889     -15.300889      0.66134271   
    569000   1848.7706     -14.217997     -14.934914     -14.934914      0.71691705   
    570000   1706.9325     -14.673624     -15.335539     -15.335539      0.66191502   
    571000   1803.9754     -14.63321      -15.332756     -15.332756      0.69954636   
    572000   1642.8637     -14.259768     -14.896839     -14.896839      0.63707041   
    573000   1750.1201     -14.563779     -15.242442     -15.242442      0.67866233   
    574000   1733.7703     -14.68781      -15.360132     -15.360132      0.67232221   
    575000   1668.0158     -14.5539       -15.200724     -15.200724      0.64682387   
    576000   1846.918      -14.51277      -15.228968     -15.228968      0.71619868   
    577000   1687.4605     -14.662596     -15.31696      -15.31696       0.65436416   
    578000   1723.3097     -14.602778     -15.271043     -15.271043      0.6682658    
    579000   1745.0551     -14.160425     -14.837124     -14.837124      0.67669823   
    580000   1754.1984     -14.69523      -15.375474     -15.375474      0.68024383   
    581000   1766.9208     -14.574851     -15.260028     -15.260028      0.68517733   
    582000   1566.2095     -14.382609     -14.989954     -14.989954      0.6073454    
    583000   1843.2674     -14.618525     -15.333308     -15.333308      0.71478302   
    584000   1737.4535     -14.618952     -15.292702     -15.292702      0.67375045   
    585000   1692.7957     -14.577864     -15.234297     -15.234297      0.65643306   
    586000   1865.0053     -14.412959     -15.136172     -15.136172      0.72321258   
    587000   1765.0554     -14.614534     -15.298988     -15.298988      0.68445395   
    588000   1755.1237     -14.591638     -15.272241     -15.272241      0.68060262   
    589000   1778.1494     -14.296574     -14.986106     -14.986106      0.68953155   
    590000   1768.7907     -14.687077     -15.372979     -15.372979      0.68590241   
    591000   1783.3522     -14.570079     -15.261628     -15.261628      0.69154909   
    592000   1652.19       -14.099663     -14.74035      -14.74035       0.64068696   
    593000   1805.0498     -14.590116     -15.290078     -15.290078      0.69996299   
    594000   1756.6046     -14.519453     -15.20063      -15.20063       0.6811769    
    595000   1680.3207     -14.341658     -14.993254     -14.993254      0.65159551   
    596000   1890.12       -14.413652     -15.146603     -15.146603      0.73295156   
    597000   1815.7871     -14.540673     -15.244799     -15.244799      0.7041267    
    598000   1734.3441     -14.581773     -15.254317     -15.254317      0.67254469   
    599000   1911.8591     -14.261734     -15.003116     -15.003116      0.74138156   
    600000   1753.1202     -14.673133     -15.352959     -15.352959      0.67982571   
    601000   1820.6614     -14.603407     -15.309423     -15.309423      0.70601685   
    602000   1800.3853     -14.037898     -14.736052     -14.736052      0.69815421   
    603000   1826.1273     -14.594948     -15.303084     -15.303084      0.70813644   
    604000   1782.9886     -14.597315     -15.288724     -15.288724      0.69140811   
    605000   1667.0193     -14.28923      -14.935667     -14.935667      0.64643749   
    606000   1880.3077     -14.542362     -15.271508     -15.271508      0.72914656   
    607000   1846.1841     -14.483985     -15.199899     -15.199899      0.71591409   
    608000   1746.215      -14.378642     -15.05579      -15.05579       0.677148     
    609000   1967.8518     -14.459767     -15.222861     -15.222861      0.76309441   
    610000   1867.8681     -14.523223     -15.247546     -15.247546      0.72432272   
    611000   1758.9739     -14.50517      -15.187266     -15.187266      0.68209567   
    612000   2059.9406     -14.379264     -15.178068     -15.178068      0.79880465   
    613000   1774.4649     -14.515634     -15.203737     -15.203737      0.68810279   
    614000   1803.5791     -14.572581     -15.271973     -15.271973      0.6993927    
    615000   2077.5909     -14.211669     -15.017318     -15.017318      0.8056491    
    616000   1835.4531     -14.575136     -15.286889     -15.286889      0.71175279   
    617000   1899.5617     -14.504003     -15.240616     -15.240616      0.73661285   
    618000   1872.2726     -14.106983     -14.833014     -14.833014      0.72603068   
    619000   1825.2541     -14.53342      -15.241218     -15.241218      0.70779783   
    620000   1890.2921     -14.53964      -15.272658     -15.272658      0.73301828   
    621000   1737.4563     -14.141087     -14.814838     -14.814838      0.67375157   
    622000   1883.9032     -14.4952       -15.225741     -15.225741      0.7305408    
    623000   1890.9801     -14.500504     -15.233789     -15.233789      0.7332851    
    624000   1687.587      -14.265093     -14.919507     -14.919507      0.65441321   
    625000   2011.4882     -14.564798     -15.344814     -15.344814      0.78001576   
    626000   1888.3188     -14.54939      -15.281643     -15.281643      0.73225307   
    627000   1784.9743     -14.364165     -15.056343     -15.056343      0.69217812   
    628000   2029.7989     -14.5018       -15.288916     -15.288916      0.78711629   
    629000   1868.647      -14.556974     -15.281598     -15.281598      0.72462473   
    630000   1886.0324     -14.439948     -15.171314     -15.171314      0.73136646   
    631000   1932.6073     -14.351631     -15.101059     -15.101059      0.74942732   
    632000   1946.5639     -14.554694     -15.309534     -15.309534      0.75483938   
    633000   1842.353      -14.234198     -14.948626     -14.948626      0.71442843   
    634000   2062.5665     -14.548854     -15.348677     -15.348677      0.79982293   
    635000   1916.0199     -14.582128     -15.325123     -15.325123      0.74299501   
    636000   1759.6438     -14.491077     -15.173433     -15.173433      0.68235545   
    637000   2110.4676     -14.460981     -15.279379     -15.279379      0.81839803   
    638000   2086.3666     -14.437346     -15.246399     -15.246399      0.80905216   
    639000   1820.5676     -14.400273     -15.106253     -15.106253      0.70598051   
    640000   2064.4132     -14.277123     -15.077662     -15.077662      0.80053903   
    641000   1886.4404     -14.58364      -15.315165     -15.315165      0.73152469   
    642000   1928.6893     -14.480234     -15.228142     -15.228142      0.74790797   
    643000   2142.9171     -14.052458     -14.883439     -14.883439      0.83098132   
    644000   1930.9933     -14.448566     -15.197367     -15.197367      0.7488014    
    645000   1900.4594     -14.56227      -15.299231     -15.299231      0.73696099   
    646000   2119.6014     -14.089172     -14.911112     -14.911112      0.82193996   
    647000   2040.9943     -14.47044      -15.261898     -15.261898      0.79145764   
    648000   1834.2187     -14.627566     -15.33884      -15.33884       0.71127413   
    649000   2070.5885     -14.046245     -14.849179     -14.849179      0.8029337    
    650000   1910.148      -14.450197     -15.190915     -15.190915      0.74071804   
    651000   1930.6782     -14.415115     -15.163794     -15.163794      0.74867922   
    652000   2063.3035     -14.033262     -14.833371     -14.833371      0.80010873   
    653000   1971.8556     -14.380474     -15.145121     -15.145121      0.76464702   
    654000   1951.2946     -14.533673     -15.290347     -15.290347      0.75667387   
    655000   2124.6106     -13.784491     -14.608374     -14.608374      0.8238824    
    656000   1907.5686     -14.365224     -15.104941     -15.104941      0.73971779   
    657000   1938.7614     -14.527543     -15.279357     -15.279357      0.75181376   
    658000   2097.0474     -13.969031     -14.782225     -14.782225      0.81319396   
    659000   1987.7083     -14.580439     -15.351234     -15.351234      0.77079439   
    660000   1937.5111     -14.501842     -15.253171     -15.253171      0.75132888   
    661000   2132.905      -13.969883     -14.796982     -14.796982      0.82709883   
    662000   2001.6439     -14.503624     -15.279822     -15.279822      0.77619835   
    663000   2027.8098     -14.471457     -15.257802     -15.257802      0.78634495   
    664000   2052.521      -13.987356     -14.783284     -14.783284      0.7959275    
    665000   1999.3984     -14.605504     -15.380831     -15.380831      0.77532757   
    666000   1835.5525     -14.308862     -15.020653     -15.020653      0.71179134   
    667000   1938.4647     -14.026973     -14.778672     -14.778672      0.7516987    
    668000   2014.6159     -14.521844     -15.303072     -15.303072      0.78122861   
    669000   2065.2238     -14.296475     -15.097329     -15.097329      0.8008534    
    670000   1976.389      -14.124551     -14.890956     -14.890956      0.76640498   
    671000   1937.0832     -14.285191     -15.036354     -15.036354      0.75116295   
    672000   1945.6805     -14.303472     -15.057969     -15.057969      0.75449682   
    673000   2112.3493     -14.171392     -14.99052      -14.99052       0.81912773   
    674000   2055.6314     -14.460763     -15.257896     -15.257896      0.79713364   
    675000   1968.6106     -14.283722     -15.04711      -15.04711       0.76338866   
    676000   2202.0578     -14.360142     -15.214057     -15.214057      0.85391493   
    677000   1976.297      -14.421725     -15.188094     -15.188094      0.76636931   
    678000   1935.9121     -14.346206     -15.096915     -15.096915      0.75070884   
    679000   2201.9897     -14.214004     -15.067892     -15.067892      0.85388853   
    680000   2021.8976     -14.491631     -15.275684     -15.275684      0.78405235   
    681000   1900.8838     -14.232407     -14.969532     -14.969532      0.73712554   
    682000   2121.5677     -14.411948     -15.23465      -15.23465       0.82270246   
    683000   2052.9978     -14.461322     -15.257435     -15.257435      0.79611238   
    684000   1833.6629     -13.959048     -14.670107     -14.670107      0.7110586    
    685000   2030.8049     -14.478218     -15.265724     -15.265724      0.7875064    
    686000   1995.4322     -14.500498     -15.274287     -15.274287      0.77378955   
    687000   1820.9419     -14.049465     -14.755591     -14.755591      0.70612563   
    688000   2128.5581     -14.540709     -15.366122     -15.366122      0.82541319   
    689000   2089.4862     -14.394036     -15.204298     -15.204298      0.81026187   
    690000   1960.1959     -13.744035     -14.504161     -14.504161      0.76012564   
    691000   2027.82       -14.383485     -15.169834     -15.169834      0.78634893   
    692000   2081.4696     -14.49462      -15.301773     -15.301773      0.80715317   
    693000   2118.1822     -13.915995     -14.737385     -14.737385      0.82138961   
    694000   2051.6452     -14.444151     -15.239739     -15.239739      0.79558787   
    695000   2038.4295     -14.440614     -15.231077     -15.231077      0.79046308   
    696000   2227.3354     -13.883683     -14.7474       -14.7474        0.86371707   
    697000   2134.3085     -14.494176     -15.321819     -15.321819      0.8276431    
    698000   2143.4537     -14.526623     -15.357812     -15.357812      0.83118941   
    699000   2130.0806     -13.602325     -14.428329     -14.428329      0.82600356   
    700000   2034.9627     -14.521118     -15.310236     -15.310236      0.78911872   
    701000   2117.5457     -14.567981     -15.389123     -15.389123      0.82114278   
    702000   2410.5915     -14.182914     -15.117694     -15.117694      0.93478022   
    703000   2136.5809     -14.278817     -15.107341     -15.107341      0.82852428   
    704000   1993.2356     -14.06246      -14.835397     -14.835397      0.77293778   
    705000   2108.7033     -14.392435     -15.210149     -15.210149      0.8177139    
    706000   1992.8848     -14.18195      -14.954752     -14.954752      0.77280172   
    707000   2285.3382     -13.936084     -14.822293     -14.822293      0.88620944   
    708000   2065.564      -14.404466     -15.205452     -15.205452      0.80098532   
    709000   2188.1845     -14.265584     -15.114119     -15.114119      0.84853512   
    710000   2275.0924     -14.292029     -15.174266     -15.174266      0.88223634   
    711000   2106.0771     -14.381756     -15.198451     -15.198451      0.8166955    
    712000   1937.4609     -14.055249     -14.806558     -14.806558      0.75130943   
    713000   2186.1797     -14.478039     -15.325796     -15.325796      0.84775771   
    714000   2036.1369     -14.399569     -15.189143     -15.189143      0.78957406   
    715000   1967.6135     -14.13716      -14.900162     -14.900162      0.76300203   
    716000   2242.873      -14.292935     -15.162677     -15.162677      0.86974227   
    717000   2109.6686     -14.427365     -15.245454     -15.245454      0.81808819   
    718000   1980.9701     -13.778601     -14.546783     -14.546783      0.76818146   
    719000   2363.525      -14.072091     -14.98862      -14.98862       0.91652877   
    720000   2138.4037     -14.45094      -15.280172     -15.280172      0.82923111   
    721000   2037.2718     -14.127728     -14.917742     -14.917742      0.79001416   
    722000   2222.5439     -14.45834      -15.320199     -15.320199      0.86185903   
    723000   1990.4025     -14.116998     -14.888837     -14.888837      0.77183916   
    724000   2190.9953     -13.999476     -14.849101     -14.849101      0.84962512   
    725000   2175.3581     -14.512581     -15.356142     -15.356142      0.84356132   
    726000   2232.7031     -14.111721     -14.977519     -14.977519      0.8657986    
    727000   2152.5282     -13.903239     -14.737947     -14.737947      0.83470833   
    728000   2192.0478     -14.562428     -15.412461     -15.412461      0.85003325   
    729000   2156.9011     -16.983468     -17.819872     -17.819872      0.83640403   
    730000   2042.9801     -16.892593     -17.684821     -17.684821      0.79222773   
    731000   1655.2149     -15.965385     -16.607245     -16.607245      0.64185996   
    732000   2478.7076     -17.300947     -18.262141     -18.262141      0.9611943    
    733000   2239.8706     -17.768248     -18.636826     -18.636826      0.86857799   
    734000   2254.2258     -17.558928     -18.433072     -18.433072      0.87414466   
    735000   2299.8951     -17.773738     -18.665593     -18.665593      0.89185433   
    736000   2251.8276     -17.824685     -18.6979       -18.6979        0.87321469   
    737000   2178.7396     -17.535693     -18.380566     -18.380566      0.84487259   
    738000   2174.6779     -17.396982     -18.240279     -18.240279      0.84329753   
    739000   2227.5295     -17.429067     -18.29286      -18.29286       0.86379237   
    740000   2189.9027     -17.405918     -18.25512      -18.25512       0.8492014    
    741000   2146.1156     -17.223274     -18.055495     -18.055495      0.83222162   
    742000   2165.4807     -17.055924     -17.895655     -17.895655      0.83973106   
    743000   2245.7707     -17.061526     -17.932392     -17.932392      0.87086595   
    744000   2260.6531     -17.138642     -18.015279     -18.015279      0.87663705   
    745000   2253.031      -17.142004     -18.015685     -18.015685      0.87368134   
    746000   2223.7469     -17.157145     -18.01947      -18.01947       0.86232553   
    747000   2215.4596     -17.195128     -18.05424      -18.05424       0.85911188   
    748000   2236.7043     -17.194732     -18.062082     -18.062082      0.86735016   
    749000   2241.7174     -17.166712     -18.036006     -18.036006      0.86929416   
    750000   2232.0005     -17.143834     -18.00936      -18.00936       0.86552612   
    751000   2248.3672     -17.146554     -18.018426     -18.018426      0.8718728    
    752000   2242.1367     -17.156567     -18.026023     -18.026023      0.86945676   
    753000   2240.4379     -17.191873     -18.060671     -18.060671      0.868798     
    754000   2258.7716     -17.211103     -18.087011     -18.087011      0.87590743   
    755000   2253.7687     -17.220948     -18.094915     -18.094915      0.87396741   
    756000   2262.3212     -17.235565     -18.112849     -18.112849      0.87728389   
    757000   2269.3707     -17.236492     -18.11651      -18.11651       0.88001756   
    758000   2261.1833     -17.24447      -18.121313     -18.121313      0.87684263   
    759000   2268.9333     -17.256378     -18.136226     -18.136226      0.87984795   
    760000   2268.2244     -17.264355     -18.143928     -18.143928      0.87957305   
    761000   2283.3319     -17.266923     -18.152355     -18.152355      0.88543145   
    762000   2286.8786     -17.251544     -18.13835      -18.13835       0.88680677   
    763000   2276.1786     -17.251812     -18.134469     -18.134469      0.88265754   
    764000   2290.6431     -17.253569     -18.141836     -18.141836      0.88826658   
    765000   2288.9784     -17.246131     -18.133752     -18.133752      0.88762104   
    766000   2287.9858     -17.255957     -18.143193     -18.143193      0.88723614   
    767000   2301.2002     -17.256151     -18.148511     -18.148511      0.8923604    
    768000   2301.1895     -17.251184     -18.14354      -18.14354       0.89235625   
    769000   2307.3974     -17.246179     -18.140943     -18.140943      0.89476356   
    770000   2304.0246     -17.243744     -18.137199     -18.137199      0.89345567   
    771000   2311.0138     -17.247843     -18.144009     -18.144009      0.89616595   
    772000   2317.0887     -17.241576     -18.140098     -18.140098      0.89852167   
    773000   2312.1728     -17.243819     -18.140435     -18.140435      0.89661538   
    774000   2323.4667     -17.244166     -18.145161     -18.145161      0.90099495   
    775000   2326.3878     -17.236688     -18.138816     -18.138816      0.90212767   
    776000   2331.9861     -17.228602     -18.132901     -18.132901      0.9042986    
    777000   2327.692      -17.222416     -18.125049     -18.125049      0.90263343   
    778000   2329.152      -17.228438     -18.131638     -18.131638      0.90319959   
    779000   2341.0711     -17.224053     -18.131874     -18.131874      0.90782158   
    780000   2335.2957     -17.220882     -18.126464     -18.126464      0.90558198   
    781000   2344.5455     -17.221955     -18.131124     -18.131124      0.90916887   
    782000   2347.8085     -17.214099     -18.124533     -18.124533      0.9104342    
    783000   2349.255      -17.210626     -18.121621     -18.121621      0.91099513   
    784000   2349.9475     -17.208145     -18.119408     -18.119408      0.91126366   
    785000   2352.2237     -17.211379     -18.123525     -18.123525      0.91214631   
    786000   2362.531      -17.206419     -18.122563     -18.122563      0.91614331   
    787000   2358.4437     -17.201596     -18.116154     -18.116154      0.91455831   
    788000   2363.5957     -17.202675     -18.119232     -18.119232      0.91655618   
    789000   2367.3034     -17.199894     -18.117888     -18.117888      0.91799396   
    790000   2375.2329     -17.193925     -18.114994     -18.114994      0.92106886   
    791000   2371.4534     -17.186107     -18.105711     -18.105711      0.91960322   
    792000   2370.8244     -17.192291     -18.11165      -18.11165       0.9193593    
    793000   2382.9507     -17.189805     -18.113867     -18.113867      0.92406164   
    794000   2381.1463     -17.184634     -18.107996     -18.107996      0.92336194   
    795000   2384.9677     -17.183152     -18.107996     -18.107996      0.92484381   
    796000   2385.8376     -17.182813     -18.107994     -18.107994      0.92518114   
    797000   2394.6123     -17.18012      -18.108704     -18.108704      0.92858381   
    798000   2393.3723     -17.173957     -18.10206      -18.10206       0.92810297   
    799000   2395.5709     -17.17493      -18.103885     -18.103885      0.92895553   
    800000   2400.2706     -17.172205     -18.102983     -18.102983      0.93077799   
    801000   2404.8122     -17.169709     -18.102248     -18.102248      0.93253911   
    802000   2405.3623     -17.164147     -18.096899     -18.096899      0.93275243   
    803000   2405.5541     -17.1677       -18.100527     -18.100527      0.9328268    
    804000   2416.6862     -17.163125     -18.100269     -18.100269      0.93714361   
    805000   2414.3065     -17.157605     -18.093826     -18.093826      0.93622081   
    806000   2416.3435     -17.157931     -18.094942     -18.094942      0.93701072   
    807000   2418.6764     -17.159173     -18.097089     -18.097089      0.93791538   
    808000   2428.5617     -17.155508     -18.097256     -18.097256      0.94174873   
    809000   2426.6176     -17.148234     -18.089229     -18.089229      0.94099481   
    810000   2427.8979     -17.149151     -18.090642     -18.090642      0.94149129   
    811000   2430.8502     -17.149789     -18.092425     -18.092425      0.94263613   
    812000   2441.069      -17.146161     -18.09276      -18.09276       0.94659878   
    813000   2438.5383     -17.137605     -18.083222     -18.083222      0.94561744   
    814000   2437.7362     -17.141992     -18.087298     -18.087298      0.94530641   
    815000   2446.1834     -17.141374     -18.089956     -18.089956      0.94858207   
    816000   2451.4062     -17.136562     -18.087169     -18.087169      0.95060735   
    817000   2450.8899     -17.129524     -18.079931     -18.079931      0.95040715   
    818000   2449.6324     -17.132764     -18.082684     -18.082684      0.94991952   
    819000   2457.2765     -17.132795     -18.085679     -18.085679      0.95288376   
    820000   2463.1853     -17.128745     -18.08392      -18.08392       0.95517509   
    821000   2463.1921     -17.121451     -18.076629     -18.076629      0.9551777    
    822000   2461.2104     -17.125124     -18.079534     -18.079534      0.95440922   
    823000   2472.4503     -17.123801     -18.082569     -18.082569      0.95876785   
    824000   2474.6079     -17.117172     -18.076776     -18.076776      0.95960452   
    825000   2474.5212     -17.111947     -18.071517     -18.071517      0.95957092   
    826000   2472.8554     -17.115389     -18.074314     -18.074314      0.95892496   
    827000   2481.7521     -17.11606      -18.078435     -18.078435      0.96237491   
    828000   2486.3422     -17.111939     -18.076094     -18.076094      0.96415488   
    829000   2487.2684     -17.105766     -18.07028      -18.07028       0.96451403   
    830000   2485.6741     -17.108535     -18.07243      -18.07243       0.96389576   
    831000   2497.166      -17.106733     -18.075085     -18.075085      0.96835211   
    832000   2499.163      -17.099204     -18.06833      -18.06833       0.9691265    
    833000   2498.4058     -17.093767     -18.0626       -18.0626        0.96883289   
    834000   2496.3201     -17.097548     -18.065572     -18.065572      0.96802408   
    835000   2504.6351     -17.099333     -18.070581     -18.070581      0.97124849   
    836000   2510.4656     -17.096258     -18.069767     -18.069767      0.97350945   
    837000   2511.3894     -17.08971      -18.063577     -18.063577      0.97386766   
    838000   2509.9636     -17.092617     -18.065932     -18.065932      0.97331479   
    839000   2520.5096     -17.090981     -18.068385     -18.068385      0.9774043    
    840000   2524.972      -17.083581     -18.062716     -18.062716      0.97913473   
    841000   2523.6667     -17.075354     -18.053983     -18.053983      0.97862858   
    842000   2520.3628     -17.078472     -18.055819     -18.055819      0.97734739   
    843000   2525.5396     -17.081836     -18.061191     -18.061191      0.97935485   
    844000   2534.5536     -17.081345     -18.064195     -18.064195      0.98285031   
    845000   2535.3509     -17.074604     -18.057763     -18.057763      0.98315947   
    846000   2534.9944     -17.077126     -18.060147     -18.060147      0.98302122   
    847000   2541.6929     -17.076519     -18.062138     -18.062138      0.98561876   
    848000   2550.4022     -17.070473     -18.059469     -18.059469      0.98899609   
    849000   2550.7331     -17.059677     -18.048801     -18.048801      0.98912438   
    850000   2547.6781     -17.056817     -18.044757     -18.044757      0.98793971   
    851000   2545.5718     -17.060908     -18.048031     -18.048031      0.98712293   
    852000   2555.4085     -17.064121     -18.055059     -18.055059      0.99093742   
    853000   2558.3265     -17.062196     -18.054265     -18.054265      0.99206896   
    854000   2561.8996     -17.061407     -18.054862     -18.054862      0.99345455   
    855000   2563.59       -17.060746     -18.054856     -18.054856      0.99411005   
    856000   2570.7695     -17.056709     -18.053603     -18.053603      0.9968941    
    857000   2576.5263     -17.050669     -18.049795     -18.049795      0.99912648   
    858000   2580.1812     -17.039525     -18.040068     -18.040068      1.0005438    
    859000   2573.7512     -17.036479     -18.034529     -18.034529      0.99805037   
    860000   2572.9046     -17.039844     -18.037566     -18.037566      0.99772206   
    861000   2578.5032     -17.046755     -18.046648     -18.046648      0.99989309   
[...]
   1890000   630.09895     -18.552774     -18.797114     -18.797114      0.24434004   
   1891000   626.89946     -18.555295     -18.798394     -18.798394      0.24309934   
   1892000   623.61004     -18.557987     -18.799811     -18.799811      0.24182377   
   1893000   620.37985     -18.5608       -18.801371     -18.801371      0.24057117   
   1894000   617.41976     -18.563763     -18.803187     -18.803187      0.2394233    
   1895000   614.55745     -18.566612     -18.804925     -18.804925      0.23831335   
   1896000   611.72503     -18.569332     -18.806547     -18.806547      0.237215     
   1897000   608.96558     -18.571955     -18.8081       -18.8081        0.23614494   
   1898000   606.24509     -18.574374     -18.809464     -18.809464      0.23508998   
   1899000   603.46187     -18.576594     -18.810605     -18.810605      0.23401071   
   1900000   600.65107     -18.578732     -18.811653     -18.811653      0.23292074   
   1901000   597.86106     -18.580723     -18.812562     -18.812562      0.23183882   
   1902000   594.97538     -18.582555     -18.813275     -18.813275      0.23071981   
   1903000   591.84431     -18.584474     -18.81398      -18.81398       0.22950564   
   1904000   588.64158     -18.586452     -18.814715     -18.814715      0.22826369   
   1905000   585.50198     -18.588559     -18.815606     -18.815606      0.22704621   
   1906000   582.20539     -18.590848     -18.816616     -18.816616      0.22576786   
   1907000   578.89005     -18.59325      -18.817732     -18.817732      0.22448224   
   1908000   575.71329     -18.595832     -18.819082     -18.819082      0.22325035   
   1909000   572.54312     -18.598661     -18.820682     -18.820682      0.22202102   
   1910000   569.38318     -18.601137     -18.821933     -18.821933      0.22079566   
   1911000   566.43904     -18.60433      -18.823984     -18.823984      0.21965398   
   1912000   563.40768     -18.606829     -18.825307     -18.825307      0.21847848   
   1913000   560.81166     -18.609813     -18.827285     -18.827285      0.21747179   
   1914000   557.79592     -18.612361     -18.828664     -18.828664      0.21630234   
   1915000   555.29989     -18.614795     -18.83013      -18.83013       0.21533443   
   1916000   552.72703     -18.617195     -18.831532     -18.831532      0.21433673   
   1917000   550.0507      -18.618891     -18.83219      -18.83219       0.2132989    
   1918000   547.20619     -18.620911     -18.833107     -18.833107      0.21219585   
   1919000   544.28202     -18.622264     -18.833326     -18.833326      0.21106192   
   1920000   541.22396     -18.624195     -18.834071     -18.834071      0.20987606   
   1921000   538.03953     -18.62547      -18.834112     -18.834112      0.2086412    
   1922000   534.73155     -18.627649     -18.835007     -18.835007      0.20735843   
   1923000   531.25424     -18.629227     -18.835237     -18.835237      0.20601      
   1924000   527.92123     -18.631952     -18.836669     -18.836669      0.20471753   
   1925000   524.37706     -18.634038     -18.837381     -18.837381      0.20334317   
   1926000   521.09761     -18.637276     -18.839347     -18.839347      0.20207146   
   1927000   517.61697     -18.640009     -18.840731     -18.840731      0.20072173   
   1928000   514.58728     -18.64359      -18.843137     -18.843137      0.19954688   
   1929000   511.46869     -18.646819     -18.845157     -18.845157      0.19833755   
   1930000   508.80711     -18.650291     -18.847596     -18.847596      0.19730544   
   1931000   506.83148     -18.653393     -18.849933     -18.849933      0.19653933   
   1932000   503.48614     -18.655483     -18.850725     -18.850725      0.19524208   
   1933000   502.82253     -18.65806      -18.853044     -18.853044      0.19498474   
   1934000   500.08806     -18.659347     -18.853272     -18.853272      0.19392436   
   1935000   497.3027      -18.660201     -18.853045     -18.853045      0.19284426   
   1936000   494.12803     -18.661481     -18.853094     -18.853094      0.19161318   
   1937000   490.98786     -18.661895     -18.852291     -18.852291      0.19039549   
   1938000   487.38955     -18.663938     -18.852938     -18.852938      0.18900013   
   1939000   483.79588     -18.664548     -18.852155     -18.852155      0.18760658   
   1940000   480.00673     -18.667719     -18.853856     -18.853856      0.18613722   
   1941000   476.18759     -18.66927      -18.853926     -18.853926      0.18465623   
   1942000   472.6205      -18.673296     -18.856569     -18.856569      0.18327298   
   1943000   468.93395     -18.675901     -18.857744     -18.857744      0.18184341   
   1944000   465.73903     -18.680133     -18.860737     -18.860737      0.18060448   
   1945000   462.44247     -18.683591     -18.862917     -18.862917      0.17932614   
   1946000   460.04184     -18.687685     -18.86608      -18.86608       0.17839522   
   1947000   460.43625     -18.69064      -18.869188     -18.869188      0.17854817   
   1948000   453.42268     -18.692465     -18.868293     -18.868293      0.17582844   
   1949000   455.8869      -18.696043     -18.872827     -18.872827      0.17678402   
   1950000   453.3419      -18.696565     -18.872362     -18.872362      0.17579712   
   1951000   450.49214     -18.69703      -18.871722     -18.871722      0.17469204   
   1952000   447.33396     -18.696961     -18.870428     -18.870428      0.17346736   
   1953000   443.53864     -18.697797     -18.869793     -18.869793      0.17199561   
   1954000   439.29306     -18.698696     -18.869045     -18.869045      0.17034925   
   1955000   434.77547     -18.702077     -18.870674     -18.870674      0.16859742   
   1956000   430.42441     -18.70512      -18.87203      -18.87203       0.16691016   
   1957000   426.72436     -18.710094     -18.87557      -18.87557       0.16547536   
   1958000   423.18852     -18.712501     -18.876605     -18.876605      0.16410423   
   1959000   420.34939     -18.715432     -18.878435     -18.878435      0.16300327   
   1960000   416.96156     -18.715907     -18.877597     -18.877597      0.16168954   
   1961000   415.50975     -18.717891     -18.879018     -18.879018      0.16112655   
   1962000   415.75467     -18.717499     -18.878721     -18.878721      0.16122153   
   1963000   405.83103     -18.724195     -18.881568     -18.881568      0.15737333   
   1964000   411.97119     -18.728763     -18.888518     -18.888518      0.15975437   
   1965000   410.98909     -18.729402     -18.888775     -18.888775      0.15937353   
   1966000   408.52387     -18.730521     -18.888938     -18.888938      0.15841757   
   1967000   405.23898     -18.728444     -18.885587     -18.885587      0.15714375   
   1968000   398.12263     -18.731204     -18.885588     -18.885588      0.15438416   
   1969000   390.14106     -18.739014     -18.890303     -18.890303      0.15128907   
   1970000   385.14462     -18.751427     -18.900779     -18.900779      0.14935155   
   1971000   383.342       -18.758656     -18.907309     -18.907309      0.14865253   
   1972000   380.05392     -18.75596      -18.903337     -18.903337      0.14737748   
   1973000   379.89582     -18.746335     -18.893651     -18.893651      0.14731617   
   1974000   373.8771      -18.726621     -18.871604     -18.871604      0.14498222   
   1975000   371.44279     -18.722791     -18.86683      -18.86683       0.14403825   
   1976000   357.95494     -18.739426     -18.878234     -18.878234      0.13880792   
   1977000   380.51119     -18.745891     -18.893446     -18.893446      0.1475548    
   1978000   374.46986     -18.764097     -18.90931      -18.90931       0.14521209   
   1979000   380.75588     -18.744797     -18.892446     -18.892446      0.14764968   
   1980000   358.87238     -18.769654     -18.908817     -18.908817      0.13916369   
   1981000   348.63989     -18.779939     -18.915134     -18.915134      0.13519573   
   1982000   347.04493     -18.819799     -18.954376     -18.954376      0.13457723   
   1983000   348.0747      -18.794449     -18.929426     -18.929426      0.13497656   
   1984000   353.68396     -18.772006     -18.909158     -18.909158      0.13715172   
   1985000   334.71059     -18.72699      -18.856785     -18.856785      0.12979422   
   1986000   331.32394     -18.753997     -18.882478     -18.882478      0.12848094   
   1987000   344.77705     -18.754188     -18.887886     -18.887886      0.13369779   
   1988000   350.54617     -18.756872     -18.892807     -18.892807      0.13593494   
   1989000   341.72263     -18.772309     -18.904823     -18.904823      0.13251335   
   1990000   320.83077     -18.78603      -18.910442     -18.910442      0.1244119    
   1991000   324.88068     -18.846223     -18.972205     -18.972205      0.12598237   
   1992000   322.02083     -18.823734     -18.948607     -18.948607      0.12487338   
   1993000   330.94179     -18.803609     -18.931941     -18.931941      0.12833275   
   1994000   304.26247     -18.764747     -18.882734     -18.882734      0.11798703   
   1995000   297.98637     -18.781351     -18.896905     -18.896905      0.11555328   
   1996000   320.89713     -18.774253     -18.898691     -18.898691      0.12443763   
   1997000   327.02161     -18.790173     -18.916986     -18.916986      0.12681258   
   1998000   315.21433     -18.774686     -18.89692      -18.89692       0.12223395   
   1999000   294.65543     -18.809114     -18.923376     -18.923376      0.11426161   
   2000000   296.89421     -18.831019     -18.946149     -18.946149      0.11512976   
   2001000   293.77631     -18.842329     -18.95625      -18.95625       0.1139207    
   2002000   302.24783     -18.83231      -18.949516     -18.949516      0.1172058    
   2003000   287.72554     -18.802541     -18.914116     -18.914116      0.11157434   
   2004000   277.85306     -18.810315     -18.918061     -18.918061      0.10774598   
   2005000   290.66032     -18.807161     -18.919873     -18.919873      0.11271238   
   2006000   290.78711     -18.807164     -18.919926     -18.919926      0.11276155   
   2007000   290.17867     -18.802472     -18.914997     -18.914997      0.11252561   
   2008000   270.76165     -18.818319     -18.923315     -18.923315      0.10499607   
   2009000   268.71239     -18.848728     -18.95293      -18.95293       0.10420141   
   2010000   267.56231     -18.854562     -18.958317     -18.958317      0.10375543   
   2011000   278.2727      -18.849129     -18.957038     -18.957038      0.10790871   
   2012000   254.84406     -18.826183     -18.925007     -18.925007      0.098823542  
   2013000   258.89987     -18.833756     -18.934152     -18.934152      0.1003963    
   2014000   260.93939     -18.829071     -18.930258     -18.930258      0.10118719   
   2015000   261.35342     -18.826858     -18.928206     -18.928206      0.10134774   
   2016000   259.69535     -18.82713      -18.927835     -18.927835      0.10070477   
   2017000   242.69724     -18.847265     -18.941378     -18.941378      0.094113241  
   2018000   242.90194     -18.869074     -18.963267     -18.963267      0.094192619  
   2019000   253.51075     -18.868747     -18.967053     -18.967053      0.098306511  
   2020000   237.40307     -18.859715     -18.951775     -18.951775      0.092060264  
   2021000   233.04363     -18.857747     -18.948116     -18.948116      0.09036976   
   2022000   235.40624     -18.856259     -18.947545     -18.947545      0.091285936  
   2023000   231.38615     -18.849968     -18.939695     -18.939695      0.089727022  
   2024000   228.94049     -18.847716     -18.936495     -18.936495      0.088778644  
   2025000   223.7663      -18.848438     -18.93521      -18.93521       0.086772195  
   2026000   217.52682     -18.872082     -18.956435     -18.956435      0.084352645  
   2027000   228.94261     -18.874736     -18.963515     -18.963515      0.088779465  
   2028000   203.71663     -18.881957     -18.960954     -18.960954      0.078997325  
   2029000   217.72566     -18.881245     -18.965675     -18.965675      0.084429751  
   2030000   209.25608     -18.871373     -18.952518     -18.952518      0.081145415  
   2031000   206.52923     -18.872425     -18.952513     -18.952513      0.080087996  
   2032000   203.01002     -18.875422     -18.954145     -18.954145      0.078723315  
   2033000   199.05711     -18.881006     -18.958197     -18.958197      0.077190452  
   2034000   212.24972     -18.880259     -18.962565     -18.962565      0.082306289  
   2035000   187.66112     -18.882078     -18.954849     -18.954849      0.072771312  
   2036000   196.58184     -18.898605     -18.974835     -18.974835      0.076230591  
   2037000   195.12091     -18.895178     -18.970843     -18.970843      0.075664072  
   2038000   188.2167      -18.890057     -18.963044     -18.963044      0.072986752  
   2039000   179.22826     -18.896915     -18.966417     -18.966417      0.069501213  
   2040000   176.32344     -18.905908     -18.974283     -18.974283      0.068374781  
   2041000   188.39248     -18.895199     -18.968254     -18.968254      0.073054919  
   2042000   163.6894      -18.897087     -18.960562     -18.960562      0.063475545  
   2043000   175.19629     -18.904158     -18.972096     -18.972096      0.067937694  
   2044000   169.84223     -18.905365     -18.971226     -18.971226      0.065861492  
   2045000   164.26532     -18.908651     -18.97235      -18.97235       0.063698877  
   2046000   159.7008      -18.916049     -18.977978     -18.977978      0.061928847  
   2047000   170.02017     -18.909389     -18.975319     -18.975319      0.065930496  
   2048000   148.18369     -18.913395     -18.970857     -18.970857      0.057462737  
   2049000   157.57678     -18.933686     -18.994791     -18.994791      0.061105191  
   2050000   155.93449     -18.923778     -18.984246     -18.984246      0.060468343  
   2051000   151.907       -18.917956     -18.976862     -18.976862      0.058906561  
   2052000   143.49586     -18.920044     -18.975689     -18.975689      0.055644888  
   2053000   144.48024     -18.9256       -18.981627     -18.981627      0.056026609  
   2054000   131.82831     -18.925613     -18.976734     -18.976734      0.051120439  
   2055000   136.03552     -18.933998     -18.98675      -18.98675       0.052751912  
   2056000   133.96804     -18.926414     -18.978365     -18.978365      0.051950183  
   2057000   131.26202     -18.924951     -18.975851     -18.975851      0.050900842  
   2058000   129.11419     -18.948859     -18.998927     -18.998927      0.050067955  
   2059000   124.83701     -18.940931     -18.989341     -18.989341      0.048409352  
   2060000   109.24202     -18.953896     -18.996258     -18.996258      0.042361918  
   2061000   121.87753     -18.939544     -18.986805     -18.986805      0.04726172   
   2062000   130.95262     -18.962633     -19.013414     -19.013414      0.050780865  
   2063000   103.25896     -18.951493     -18.991534     -18.991534      0.040041804  
   2064000   108.28002     -18.961362     -19.003351     -19.003351      0.041988873  
   2065000   108.74278     -18.960474     -19.002643     -19.002643      0.042168321  
   2066000   105.0583      -18.985373     -19.026113     -19.026113      0.040739553  
   2067000   99.294819     -18.921814     -18.960319     -18.960319      0.038504588  
   2068000   107.57411     -18.920498     -18.962213     -18.962213      0.041715134  
   2069000   108.68996     -18.962755     -19.004903     -19.004903      0.042147841  
   2070000   90.082034     -18.976015     -19.010947     -19.010947      0.03493205   
   2071000   76.495745     -18.930094     -18.959758     -18.959758      0.029663553  
   2072000   93.992867     -18.948876     -18.985325     -18.985325      0.036448595  
   2073000   91.75627      -18.955808     -18.991389     -18.991389      0.035581286  
   2074000   79.323066     -18.960857     -18.991617     -18.991617      0.030759933  
   2075000   81.232502     -18.980408     -19.011909     -19.011909      0.031500375  
   2076000   73.854083     -18.990812     -19.019451     -19.019451      0.028639169  
   2077000   64.074466     -18.981961     -19.006807     -19.006807      0.024846824  
   2078000   58.603517     -18.98289      -19.005616     -19.005616      0.022725297  
   2079000   68.996464     -18.984277     -19.011032     -19.011032      0.026755479  
   2080000   60.362571     -18.985777     -19.009184     -19.009184      0.023407424  
   2081000   59.076304     -18.970541     -18.99345      -18.99345       0.022908635  
   2082000   48.578805     -18.998174     -19.017012     -19.017012      0.01883791   
   2083000   51.444908     -18.9998       -19.019749     -19.019749      0.019949329  
   2084000   42.658823     -18.992127     -19.008669     -19.008669      0.016542257  
   2085000   42.303129     -18.976135     -18.992539     -18.992539      0.016404326  
   2086000   42.189533     -18.980773     -18.997133     -18.997133      0.016360275  
   2087000   35.437317     -18.99288      -19.006622     -19.006622      0.013741898  
   2088000   37.359196     -19.00468      -19.019167     -19.019167      0.014487165  
   2089000   38.446881     -19.011771     -19.02668      -19.02668       0.014908948  
   2090000   32.510892     -19.000461     -19.013068     -19.013068      0.012607088  
   2091000   26.94987      -19.017167     -19.027618     -19.027618      0.010450632  
   2092000   23.946876     -19.013198     -19.022484     -19.022484      0.0092861299 
   2093000   22.386288     -19.015501     -19.024182     -19.024182      0.0086809643 
   2094000   16.913324     -19.023167     -19.029726     -19.029726      0.0065586562 
   2095000   15.08312      -19.024125     -19.029973     -19.029973      0.0058489389 
   2096000   10.465691     -19.026784     -19.030843     -19.030843      0.0040583903 
   2097000   8.8067973     -19.028781     -19.032196     -19.032196      0.0034151037 
   2098000   6.0372427     -19.029602     -19.031944     -19.031944      0.0023411246 
   2099000   3.4198042     -19.029952     -19.031278     -19.031278      0.0013261332 
   2100000   0.16811188    -19.033        -19.033065     -19.033065      6.5190499e-05
   2100041   0.044730763   -19.033099     -19.033116     -19.033116      1.7345715e-05
Loop time of 3.03361 on 1 procs for 1000000 steps with 4 atoms

Performance: 2848.090 ns/day, 0.008 hours/ns, 329640.013 timesteps/s, 1.319 Matom-step/s
94.9% CPU use with 1 MPI tasks x 1 OpenMP threads

MPI task timing breakdown:
Section |  min time  |  avg time  |  max time  |%varavg| %total
---------------------------------------------------------------
Pair    | 1.636      | 1.636      | 1.636      |   0.0 | 53.93
Neigh   | 0.10829    | 0.10829    | 0.10829    |   0.0 |  3.57
Comm    | 0.19305    | 0.19305    | 0.19305    |   0.0 |  6.36
Output  | 0.18371    | 0.18371    | 0.18371    |   0.0 |  6.06
Modify  | 0.70759    | 0.70759    | 0.70759    |   0.0 | 23.32
Other   |            | 0.2049     |            |       |  6.76

Nlocal:              4 ave           4 max           4 min
Histogram: 1 0 0 0 0 0 0 0 0 0
Nghost:             14 ave          14 max          14 min
Histogram: 1 0 0 0 0 0 0 0 0 0
Neighs:              0 ave           0 max           0 min
Histogram: 1 0 0 0 0 0 0 0 0 0
FullNghs:           12 ave          12 max          12 min
Histogram: 1 0 0 0 0 0 0 0 0 0

Total # of neighbors = 12
Ave neighs/atom = 3
Neighbor list builds = 14055
Dangerous builds = 0
write_restart 	./endconf/endconf*3.restart
System init for write_restart ...

Total wall time: 0:00:07
