ITEM: TIMESTEP
0
ITEM: NUMBER OF ATOMS
2000
ITEM: BOX BOUNDS pp pp pp
0.0000000000000000e+00 3.5200000000000003e+01
0.0000000000000000e+00 3.5200000000000003e+01
0.0000000000000000e+00 3.5200000000000003e+01
ITEM: ATOMS id type xs ys zs
1 2 0 0 0
2 2 0.05 0.05 0.05
3 2 0.1 0 0
21 2 0 0.1 0
23 2 0.1 0.1 0
201 2 0 0 0.1
203 2 0.1 0 0.1
221 2 0 0.1 0.1
223 2 0.1 0.1 0.1
4 2 0.15 0.05 0.05
5 2 0.2 0 0
25 2 0.2 0.1 0
205 2 0.2 0 0.1
225 2 0.2 0.1 0.1
6 2 0.25 0.05 0.05
7 2 0.3 0 0
27 2 0.3 0.1 0
207 2 0.3 0 0.1
227 2 0.3 0.1 0.1
8 2 0.35 0.05 0.05
9 2 0.4 0 0
29 2 0.4 0.1 0
209 2 0.4 0 0.1
229 2 0.4 0.1 0.1
10 2 0.45 0.05 0.05
11 2 0.5 0 0
12 2 0.55 0.05 0.05
31 2 0.5 0.1 0
211 2 0.5 0 0.1
231 2 0.5 0.1 0.1
13 2 0.6 0 0
14 2 0.65 0.05 0.05
33 2 0.6 0.1 0
213 2 0.6 0 0.1
233 2 0.6 0.1 0.1
15 2 0.7 0 0
16 2 0.75 0.05 0.05
35 2 0.7 0.1 0
215 2 0.7 0 0.1
235 2 0.7 0.1 0.1
17 2 0.8 0 0
18 2 0.85 0.05 0.05
37 2 0.8 0.1 0
217 2 0.8 0 0.1
237 2 0.8 0.1 0.1
19 2 0.9 0 0
20 2 0.95 0.05 0.05
39 2 0.9 0.1 0
219 2 0.9 0 0.1
239 2 0.9 0.1 0.1
22 2 0.05 0.15 0.05
41 2 0 0.2 0
43 2 0.1 0.2 0
241 2 0 0.2 0.1
243 2 0.1 0.2 0.1
24 2 0.15 0.15 0.05
45 2 0.2 0.2 0
245 2 0.2 0.2 0.1
26 2 0.25 0.15 0.05
47 2 0.3 0.2 0
247 2 0.3 0.2 0.1
28 2 0.35 0.15 0.05
49 2 0.4 0.2 0
249 2 0.4 0.2 0.1
30 2 0.45 0.15 0.05
32 2 0.55 0.15 0.05
51 2 0.5 0.2 0
251 2 0.5 0.2 0.1
34 2 0.65 0.15 0.05
53 2 0.6 0.2 0
253 2 0.6 0.2 0.1
36 2 0.75 0.15 0.05
55 2 0.7 0.2 0
255 2 0.7 0.2 0.1
38 2 0.85 0.15 0.05
57 2 0.8 0.2 0
257 2 0.8 0.2 0.1
40 2 0.95 0.15 0.05
59 2 0.9 0.2 0
259 2 0.9 0.2 0.1
42 2 0.05 0.25 0.05
61 2 0 0.3 0
63 2 0.1 0.3 0
261 2 0 0.3 0.1
263 2 0.1 0.3 0.1
44 2 0.15 0.25 0.05
65 2 0.2 0.3 0
265 2 0.2 0.3 0.1
46 2 0.25 0.25 0.05
67 2 0.3 0.3 0
267 2 0.3 0.3 0.1
48 2 0.35 0.25 0.05
69 2 0.4 0.3 0
269 2 0.4 0.3 0.1
50 2 0.45 0.25 0.05
52 2 0.55 0.25 0.05
71 2 0.5 0.3 0
271 2 0.5 0.3 0.1
54 2 0.65 0.25 0.05
73 2 0.6 0.3 0
273 2 0.6 0.3 0.1
56 2 0.75 0.25 0.05
75 2 0.7 0.3 0
275 2 0.7 0.3 0.1
58 2 0.85 0.25 0.05
77 2 0.8 0.3 0
277 2 0.8 0.3 0.1
60 2 0.95 0.25 0.05
79 2 0.9 0.3 0
279 2 0.9 0.3 0.1
62 2 0.05 0.35 0.05
81 2 0 0.4 0
83 2 0.1 0.4 0
281 2 0 0.4 0.1
283 2 0.1 0.4 0.1
64 2 0.15 0.35 0.05
85 2 0.2 0.4 0
285 2 0.2 0.4 0.1
66 2 0.25 0.35 0.05
87 2 0.3 0.4 0
287 2 0.3 0.4 0.1
68 2 0.35 0.35 0.05
89 2 0.4 0.4 0
289 2 0.4 0.4 0.1
70 2 0.45 0.35 0.05
72 2 0.55 0.35 0.05
91 2 0.5 0.4 0
291 2 0.5 0.4 0.1
74 2 0.65 0.35 0.05
93 2 0.6 0.4 0
293 2 0.6 0.4 0.1
76 2 0.75 0.35 0.05
95 2 0.7 0.4 0
295 2 0.7 0.4 0.1
78 2 0.85 0.35 0.05
97 2 0.8 0.4 0
297 2 0.8 0.4 0.1
80 2 0.95 0.35 0.05
99 2 0.9 0.4 0
299 2 0.9 0.4 0.1
82 2 0.05 0.45 0.05
101 2 0 0.5 0
102 2 0.05 0.55 0.05
103 2 0.1 0.5 0
301 2 0 0.5 0.1
303 2 0.1 0.5 0.1
84 2 0.15 0.45 0.05
104 2 0.15 0.55 0.05
105 2 0.2 0.5 0
305 2 0.2 0.5 0.1
86 2 0.25 0.45 0.05
106 2 0.25 0.55 0.05
107 2 0.3 0.5 0
307 2 0.3 0.5 0.1
88 2 0.35 0.45 0.05
108 2 0.35 0.55 0.05
109 2 0.4 0.5 0
309 2 0.4 0.5 0.1
90 2 0.45 0.45 0.05
92 2 0.55 0.45 0.05
110 2 0.45 0.55 0.05
111 2 0.5 0.5 0
112 2 0.55 0.55 0.05
311 2 0.5 0.5 0.1
94 2 0.65 0.45 0.05
113 2 0.6 0.5 0
114 2 0.65 0.55 0.05
313 2 0.6 0.5 0.1
96 2 0.75 0.45 0.05
115 2 0.7 0.5 0
116 2 0.75 0.55 0.05
315 2 0.7 0.5 0.1
98 2 0.85 0.45 0.05
117 2 0.8 0.5 0
118 2 0.85 0.55 0.05
317 2 0.8 0.5 0.1
100 2 0.95 0.45 0.05
119 2 0.9 0.5 0
120 2 0.95 0.55 0.05
319 2 0.9 0.5 0.1
121 2 0 0.6 0
122 2 0.05 0.65 0.05
123 2 0.1 0.6 0
321 2 0 0.6 0.1
323 2 0.1 0.6 0.1
124 2 0.15 0.65 0.05
125 2 0.2 0.6 0
325 2 0.2 0.6 0.1
126 2 0.25 0.65 0.05
127 2 0.3 0.6 0
327 2 0.3 0.6 0.1
128 2 0.35 0.65 0.05
129 2 0.4 0.6 0
329 2 0.4 0.6 0.1
130 2 0.45 0.65 0.05
131 2 0.5 0.6 0
132 2 0.55 0.65 0.05
331 2 0.5 0.6 0.1
133 2 0.6 0.6 0
134 2 0.65 0.65 0.05
333 2 0.6 0.6 0.1
135 2 0.7 0.6 0
136 2 0.75 0.65 0.05
335 2 0.7 0.6 0.1
137 2 0.8 0.6 0
138 2 0.85 0.65 0.05
337 2 0.8 0.6 0.1
139 2 0.9 0.6 0
140 2 0.95 0.65 0.05
339 2 0.9 0.6 0.1
141 2 0 0.7 0
142 2 0.05 0.75 0.05
143 2 0.1 0.7 0
341 2 0 0.7 0.1
343 2 0.1 0.7 0.1
144 2 0.15 0.75 0.05
145 2 0.2 0.7 0
345 2 0.2 0.7 0.1
146 2 0.25 0.75 0.05
147 2 0.3 0.7 0
347 2 0.3 0.7 0.1
148 2 0.35 0.75 0.05
149 2 0.4 0.7 0
349 2 0.4 0.7 0.1
150 2 0.45 0.75 0.05
151 2 0.5 0.7 0
152 2 0.55 0.75 0.05
351 2 0.5 0.7 0.1
153 2 0.6 0.7 0
154 2 0.65 0.75 0.05
353 2 0.6 0.7 0.1
155 2 0.7 0.7 0
156 2 0.75 0.75 0.05
355 2 0.7 0.7 0.1
157 2 0.8 0.7 0
158 2 0.85 0.75 0.05
357 2 0.8 0.7 0.1
159 2 0.9 0.7 0
160 2 0.95 0.75 0.05
359 2 0.9 0.7 0.1
161 2 0 0.8 0
162 2 0.05 0.85 0.05
163 2 0.1 0.8 0
361 2 0 0.8 0.1
363 2 0.1 0.8 0.1
164 2 0.15 0.85 0.05
165 2 0.2 0.8 0
365 2 0.2 0.8 0.1
166 2 0.25 0.85 0.05
167 2 0.3 0.8 0
367 2 0.3 0.8 0.1
168 2 0.35 0.85 0.05
169 2 0.4 0.8 0
369 2 0.4 0.8 0.1
170 2 0.45 0.85 0.05
171 2 0.5 0.8 0
172 2 0.55 0.85 0.05
371 2 0.5 0.8 0.1
173 2 0.6 0.8 0
174 2 0.65 0.85 0.05
373 2 0.6 0.8 0.1
175 2 0.7 0.8 0
176 2 0.75 0.85 0.05
375 2 0.7 0.8 0.1
177 2 0.8 0.8 0
178 2 0.85 0.85 0.05
377 2 0.8 0.8 0.1
179 2 0.9 0.8 0
180 2 0.95 0.85 0.05
379 2 0.9 0.8 0.1
181 2 0 0.9 0
182 2 0.05 0.95 0.05
183 2 0.1 0.9 0
381 2 0 0.9 0.1
383 2 0.1 0.9 0.1
184 2 0.15 0.95 0.05
185 2 0.2 0.9 0
385 2 0.2 0.9 0.1
186 2 0.25 0.95 0.05
187 2 0.3 0.9 0
387 2 0.3 0.9 0.1
188 2 0.35 0.95 0.05
189 2 0.4 0.9 0
389 2 0.4 0.9 0.1
190 2 0.45 0.95 0.05
191 2 0.5 0.9 0
192 2 0.55 0.95 0.05
391 2 0.5 0.9 0.1
193 2 0.6 0.9 0
194 2 0.65 0.95 0.05
393 2 0.6 0.9 0.1
195 2 0.7 0.9 0
196 2 0.75 0.95 0.05
395 2 0.7 0.9 0.1
197 2 0.8 0.9 0
198 2 0.85 0.95 0.05
397 2 0.8 0.9 0.1
199 2 0.9 0.9 0
200 2 0.95 0.95 0.05
399 2 0.9 0.9 0.1
202 2 0.05 0.05 0.15
401 2 0 0 0.2
403 2 0.1 0 0.2
421 2 0 0.1 0.2
423 2 0.1 0.1 0.2
204 2 0.15 0.05 0.15
405 2 0.2 0 0.2
425 2 0.2 0.1 0.2
206 2 0.25 0.05 0.15
407 2 0.3 0 0.2
427 2 0.3 0.1 0.2
208 2 0.35 0.05 0.15
409 2 0.4 0 0.2
429 2 0.4 0.1 0.2
210 2 0.45 0.05 0.15
212 2 0.55 0.05 0.15
411 2 0.5 0 0.2
431 2 0.5 0.1 0.2
214 2 0.65 0.05 0.15
413 2 0.6 0 0.2
433 2 0.6 0.1 0.2
216 2 0.75 0.05 0.15
415 2 0.7 0 0.2
435 2 0.7 0.1 0.2
218 2 0.85 0.05 0.15
417 2 0.8 0 0.2
437 2 0.8 0.1 0.2
220 2 0.95 0.05 0.15
419 2 0.9 0 0.2
439 2 0.9 0.1 0.2
222 2 0.05 0.15 0.15
441 2 0 0.2 0.2
443 2 0.1 0.2 0.2
224 2 0.15 0.15 0.15
445 2 0.2 0.2 0.2
226 2 0.25 0.15 0.15
447 2 0.3 0.2 0.2
228 2 0.35 0.15 0.15
449 2 0.4 0.2 0.2
230 2 0.45 0.15 0.15
232 2 0.55 0.15 0.15
451 2 0.5 0.2 0.2
234 2 0.65 0.15 0.15
453 2 0.6 0.2 0.2
236 2 0.75 0.15 0.15
455 2 0.7 0.2 0.2
238 2 0.85 0.15 0.15
457 2 0.8 0.2 0.2
240 2 0.95 0.15 0.15
459 2 0.9 0.2 0.2
242 2 0.05 0.25 0.15
461 2 0 0.3 0.2
463 2 0.1 0.3 0.2
244 2 0.15 0.25 0.15
465 2 0.2 0.3 0.2
246 2 0.25 0.25 0.15
467 2 0.3 0.3 0.2
248 2 0.35 0.25 0.15
469 2 0.4 0.3 0.2
250 2 0.45 0.25 0.15
252 2 0.55 0.25 0.15
471 2 0.5 0.3 0.2
254 2 0.65 0.25 0.15
473 2 0.6 0.3 0.2
256 2 0.75 0.25 0.15
475 2 0.7 0.3 0.2
258 2 0.85 0.25 0.15
477 2 0.8 0.3 0.2
260 2 0.95 0.25 0.15
479 2 0.9 0.3 0.2
262 2 0.05 0.35 0.15
481 2 0 0.4 0.2
483 2 0.1 0.4 0.2
264 2 0.15 0.35 0.15
485 2 0.2 0.4 0.2
266 2 0.25 0.35 0.15
487 2 0.3 0.4 0.2
268 2 0.35 0.35 0.15
489 2 0.4 0.4 0.2
270 2 0.45 0.35 0.15
272 2 0.55 0.35 0.15
491 2 0.5 0.4 0.2
274 2 0.65 0.35 0.15
493 2 0.6 0.4 0.2
276 2 0.75 0.35 0.15
495 2 0.7 0.4 0.2
278 2 0.85 0.35 0.15
497 2 0.8 0.4 0.2
280 2 0.95 0.35 0.15
499 2 0.9 0.4 0.2
282 2 0.05 0.45 0.15
302 2 0.05 0.55 0.15
501 2 0 0.5 0.2
503 2 0.1 0.5 0.2
284 2 0.15 0.45 0.15
304 2 0.15 0.55 0.15
505 2 0.2 0.5 0.2
286 2 0.25 0.45 0.15
306 2 0.25 0.55 0.15
507 2 0.3 0.5 0.2
288 2 0.35 0.45 0.15
308 2 0.35 0.55 0.15
509 2 0.4 0.5 0.2
290 2 0.45 0.45 0.15
292 2 0.55 0.45 0.15
310 2 0.45 0.55 0.15
312 2 0.55 0.55 0.15
511 2 0.5 0.5 0.2
294 2 0.65 0.45 0.15
314 2 0.65 0.55 0.15
513 2 0.6 0.5 0.2
296 2 0.75 0.45 0.15
316 2 0.75 0.55 0.15
515 2 0.7 0.5 0.2
298 2 0.85 0.45 0.15
318 2 0.85 0.55 0.15
517 2 0.8 0.5 0.2
300 2 0.95 0.45 0.15
320 2 0.95 0.55 0.15
519 2 0.9 0.5 0.2
322 2 0.05 0.65 0.15
521 2 0 0.6 0.2
523 2 0.1 0.6 0.2
324 2 0.15 0.65 0.15
525 2 0.2 0.6 0.2
326 2 0.25 0.65 0.15
527 2 0.3 0.6 0.2
328 2 0.35 0.65 0.15
529 2 0.4 0.6 0.2
330 2 0.45 0.65 0.15
332 2 0.55 0.65 0.15
531 2 0.5 0.6 0.2
334 2 0.65 0.65 0.15
533 2 0.6 0.6 0.2
336 2 0.75 0.65 0.15
535 2 0.7 0.6 0.2
338 2 0.85 0.65 0.15
537 2 0.8 0.6 0.2
340 2 0.95 0.65 0.15
539 2 0.9 0.6 0.2
342 2 0.05 0.75 0.15
541 2 0 0.7 0.2
543 2 0.1 0.7 0.2
344 2 0.15 0.75 0.15
545 2 0.2 0.7 0.2
346 2 0.25 0.75 0.15
547 2 0.3 0.7 0.2
348 2 0.35 0.75 0.15
549 2 0.4 0.7 0.2
350 2 0.45 0.75 0.15
352 2 0.55 0.75 0.15
551 2 0.5 0.7 0.2
354 2 0.65 0.75 0.15
553 2 0.6 0.7 0.2
356 2 0.75 0.75 0.15
555 2 0.7 0.7 0.2
358 2 0.85 0.75 0.15
557 2 0.8 0.7 0.2
360 2 0.95 0.75 0.15
559 2 0.9 0.7 0.2
362 2 0.05 0.85 0.15
561 2 0 0.8 0.2
563 2 0.1 0.8 0.2
364 2 0.15 0.85 0.15
565 2 0.2 0.8 0.2
366 2 0.25 0.85 0.15
567 2 0.3 0.8 0.2
368 2 0.35 0.85 0.15
569 2 0.4 0.8 0.2
370 2 0.45 0.85 0.15
372 2 0.55 0.85 0.15
571 2 0.5 0.8 0.2
374 2 0.65 0.85 0.15
573 2 0.6 0.8 0.2
376 2 0.75 0.85 0.15
575 2 0.7 0.8 0.2
378 2 0.85 0.85 0.15
577 2 0.8 0.8 0.2
380 2 0.95 0.85 0.15
579 2 0.9 0.8 0.2
382 2 0.05 0.95 0.15
581 2 0 0.9 0.2
583 2 0.1 0.9 0.2
384 2 0.15 0.95 0.15
585 2 0.2 0.9 0.2
386 2 0.25 0.95 0.15
587 2 0.3 0.9 0.2
388 2 0.35 0.95 0.15
589 2 0.4 0.9 0.2
390 2 0.45 0.95 0.15
392 2 0.55 0.95 0.15
591 2 0.5 0.9 0.2
394 2 0.65 0.95 0.15
593 2 0.6 0.9 0.2
396 2 0.75 0.95 0.15
595 2 0.7 0.9 0.2
398 2 0.85 0.95 0.15
597 2 0.8 0.9 0.2
400 2 0.95 0.95 0.15
599 2 0.9 0.9 0.2
402 2 0.05 0.05 0.25
601 2 0 0 0.3
603 2 0.1 0 0.3
621 2 0 0.1 0.3
623 2 0.1 0.1 0.3
404 2 0.15 0.05 0.25
605 2 0.2 0 0.3
625 2 0.2 0.1 0.3
406 2 0.25 0.05 0.25
607 2 0.3 0 0.3
627 2 0.3 0.1 0.3
408 2 0.35 0.05 0.25
609 2 0.4 0 0.3
629 2 0.4 0.1 0.3
410 2 0.45 0.05 0.25
412 2 0.55 0.05 0.25
611 2 0.5 0 0.3
631 2 0.5 0.1 0.3
414 2 0.65 0.05 0.25
613 2 0.6 0 0.3
633 2 0.6 0.1 0.3
416 2 0.75 0.05 0.25
615 2 0.7 0 0.3
635 2 0.7 0.1 0.3
418 2 0.85 0.05 0.25
617 2 0.8 0 0.3
637 2 0.8 0.1 0.3
420 2 0.95 0.05 0.25
619 2 0.9 0 0.3
639 2 0.9 0.1 0.3
422 2 0.05 0.15 0.25
641 2 0 0.2 0.3
643 2 0.1 0.2 0.3
424 2 0.15 0.15 0.25
645 2 0.2 0.2 0.3
426 2 0.25 0.15 0.25
647 2 0.3 0.2 0.3
428 2 0.35 0.15 0.25
649 2 0.4 0.2 0.3
430 2 0.45 0.15 0.25
432 2 0.55 0.15 0.25
651 2 0.5 0.2 0.3
434 2 0.65 0.15 0.25
653 2 0.6 0.2 0.3
436 2 0.75 0.15 0.25
655 2 0.7 0.2 0.3
438 2 0.85 0.15 0.25
657 2 0.8 0.2 0.3
440 2 0.95 0.15 0.25
659 2 0.9 0.2 0.3
442 2 0.05 0.25 0.25
661 2 0 0.3 0.3
663 2 0.1 0.3 0.3
444 2 0.15 0.25 0.25
665 2 0.2 0.3 0.3
446 2 0.25 0.25 0.25
667 2 0.3 0.3 0.3
448 2 0.35 0.25 0.25
669 2 0.4 0.3 0.3
450 2 0.45 0.25 0.25
452 2 0.55 0.25 0.25
671 2 0.5 0.3 0.3
454 2 0.65 0.25 0.25
673 2 0.6 0.3 0.3
456 2 0.75 0.25 0.25
675 2 0.7 0.3 0.3
458 2 0.85 0.25 0.25
677 2 0.8 0.3 0.3
460 2 0.95 0.25 0.25
679 2 0.9 0.3 0.3
462 2 0.05 0.35 0.25
681 2 0 0.4 0.3
683 2 0.1 0.4 0.3
464 2 0.15 0.35 0.25
685 2 0.2 0.4 0.3
466 2 0.25 0.35 0.25
687 2 0.3 0.4 0.3
468 2 0.35 0.35 0.25
689 2 0.4 0.4 0.3
470 2 0.45 0.35 0.25
472 2 0.55 0.35 0.25
691 2 0.5 0.4 0.3
474 2 0.65 0.35 0.25
693 2 0.6 0.4 0.3
476 2 0.75 0.35 0.25
695 2 0.7 0.4 0.3
478 2 0.85 0.35 0.25
697 2 0.8 0.4 0.3
480 2 0.95 0.35 0.25
699 2 0.9 0.4 0.3
482 2 0.05 0.45 0.25
502 2 0.05 0.55 0.25
701 2 0 0.5 0.3
703 2 0.1 0.5 0.3
484 2 0.15 0.45 0.25
504 2 0.15 0.55 0.25
705 2 0.2 0.5 0.3
486 2 0.25 0.45 0.25
506 2 0.25 0.55 0.25
707 2 0.3 0.5 0.3
488 2 0.35 0.45 0.25
508 2 0.35 0.55 0.25
709 2 0.4 0.5 0.3
490 2 0.45 0.45 0.25
492 2 0.55 0.45 0.25
510 2 0.45 0.55 0.25
512 2 0.55 0.55 0.25
711 2 0.5 0.5 0.3
494 2 0.65 0.45 0.25
514 2 0.65 0.55 0.25
713 2 0.6 0.5 0.3
496 2 0.75 0.45 0.25
516 2 0.75 0.55 0.25
715 2 0.7 0.5 0.3
498 2 0.85 0.45 0.25
518 2 0.85 0.55 0.25
717 2 0.8 0.5 0.3
500 2 0.95 0.45 0.25
520 2 0.95 0.55 0.25
719 2 0.9 0.5 0.3
522 2 0.05 0.65 0.25
721 2 0 0.6 0.3
723 2 0.1 0.6 0.3
524 2 0.15 0.65 0.25
725 2 0.2 0.6 0.3
526 2 0.25 0.65 0.25
727 2 0.3 0.6 0.3
528 2 0.35 0.65 0.25
729 2 0.4 0.6 0.3
530 2 0.45 0.65 0.25
532 2 0.55 0.65 0.25
731 2 0.5 0.6 0.3
534 2 0.65 0.65 0.25
733 2 0.6 0.6 0.3
536 2 0.75 0.65 0.25
735 2 0.7 0.6 0.3
538 2 0.85 0.65 0.25
737 2 0.8 0.6 0.3
540 2 0.95 0.65 0.25
739 2 0.9 0.6 0.3
542 2 0.05 0.75 0.25
741 2 0 0.7 0.3
743 2 0.1 0.7 0.3
544 2 0.15 0.75 0.25
745 2 0.2 0.7 0.3
546 2 0.25 0.75 0.25
747 2 0.3 0.7 0.3
548 2 0.35 0.75 0.25
749 2 0.4 0.7 0.3
550 2 0.45 0.75 0.25
552 2 0.55 0.75 0.25
751 2 0.5 0.7 0.3
554 2 0.65 0.75 0.25
753 2 0.6 0.7 0.3
556 2 0.75 0.75 0.25
755 2 0.7 0.7 0.3
558 2 0.85 0.75 0.25
757 2 0.8 0.7 0.3
560 2 0.95 0.75 0.25
759 2 0.9 0.7 0.3
562 2 0.05 0.85 0.25
761 2 0 0.8 0.3
763 2 0.1 0.8 0.3
564 2 0.15 0.85 0.25
765 2 0.2 0.8 0.3
566 2 0.25 0.85 0.25
767 2 0.3 0.8 0.3
568 2 0.35 0.85 0.25
769 2 0.4 0.8 0.3
570 2 0.45 0.85 0.25
572 2 0.55 0.85 0.25
771 2 0.5 0.8 0.3
574 2 0.65 0.85 0.25
773 2 0.6 0.8 0.3
576 2 0.75 0.85 0.25
775 2 0.7 0.8 0.3
578 2 0.85 0.85 0.25
777 2 0.8 0.8 0.3
580 2 0.95 0.85 0.25
779 2 0.9 0.8 0.3
582 2 0.05 0.95 0.25
781 2 0 0.9 0.3
783 2 0.1 0.9 0.3
584 2 0.15 0.95 0.25
785 2 0.2 0.9 0.3
586 2 0.25 0.95 0.25
787 2 0.3 0.9 0.3
588 2 0.35 0.95 0.25
789 2 0.4 0.9 0.3
590 2 0.45 0.95 0.25
592 2 0.55 0.95 0.25
791 2 0.5 0.9 0.3
594 2 0.65 0.95 0.25
793 2 0.6 0.9 0.3
596 2 0.75 0.95 0.25
795 2 0.7 0.9 0.3
598 2 0.85 0.95 0.25
797 2 0.8 0.9 0.3
600 2 0.95 0.95 0.25
799 2 0.9 0.9 0.3
602 2 0.05 0.05 0.35
801 2 0 0 0.4
803 2 0.1 0 0.4
821 2 0 0.1 0.4
823 2 0.1 0.1 0.4
604 2 0.15 0.05 0.35
805 2 0.2 0 0.4
825 2 0.2 0.1 0.4
606 2 0.25 0.05 0.35
807 2 0.3 0 0.4
827 2 0.3 0.1 0.4
608 2 0.35 0.05 0.35
809 2 0.4 0 0.4
829 2 0.4 0.1 0.4
610 2 0.45 0.05 0.35
612 2 0.55 0.05 0.35
811 2 0.5 0 0.4
831 2 0.5 0.1 0.4
614 2 0.65 0.05 0.35
813 2 0.6 0 0.4
833 2 0.6 0.1 0.4
616 2 0.75 0.05 0.35
815 2 0.7 0 0.4
835 2 0.7 0.1 0.4
618 2 0.85 0.05 0.35
817 2 0.8 0 0.4
837 2 0.8 0.1 0.4
620 2 0.95 0.05 0.35
819 2 0.9 0 0.4
839 2 0.9 0.1 0.4
622 2 0.05 0.15 0.35
841 2 0 0.2 0.4
843 2 0.1 0.2 0.4
624 2 0.15 0.15 0.35
845 2 0.2 0.2 0.4
626 2 0.25 0.15 0.35
847 2 0.3 0.2 0.4
628 2 0.35 0.15 0.35
849 2 0.4 0.2 0.4
630 2 0.45 0.15 0.35
632 2 0.55 0.15 0.35
851 2 0.5 0.2 0.4
634 2 0.65 0.15 0.35
853 2 0.6 0.2 0.4
636 2 0.75 0.15 0.35
855 2 0.7 0.2 0.4
638 2 0.85 0.15 0.35
857 2 0.8 0.2 0.4
640 2 0.95 0.15 0.35
859 2 0.9 0.2 0.4
642 2 0.05 0.25 0.35
861 2 0 0.3 0.4
863 2 0.1 0.3 0.4
644 2 0.15 0.25 0.35
865 2 0.2 0.3 0.4
646 2 0.25 0.25 0.35
867 2 0.3 0.3 0.4
648 2 0.35 0.25 0.35
869 2 0.4 0.3 0.4
650 2 0.45 0.25 0.35
652 2 0.55 0.25 0.35
871 2 0.5 0.3 0.4
654 2 0.65 0.25 0.35
873 2 0.6 0.3 0.4
656 2 0.75 0.25 0.35
875 2 0.7 0.3 0.4
658 2 0.85 0.25 0.35
877 2 0.8 0.3 0.4
660 2 0.95 0.25 0.35
879 2 0.9 0.3 0.4
662 2 0.05 0.35 0.35
881 2 0 0.4 0.4
883 2 0.1 0.4 0.4
664 2 0.15 0.35 0.35
885 2 0.2 0.4 0.4
666 2 0.25 0.35 0.35
887 2 0.3 0.4 0.4
668 2 0.35 0.35 0.35
889 2 0.4 0.4 0.4
670 2 0.45 0.35 0.35
672 2 0.55 0.35 0.35
891 2 0.5 0.4 0.4
674 2 0.65 0.35 0.35
893 2 0.6 0.4 0.4
676 2 0.75 0.35 0.35
895 2 0.7 0.4 0.4
678 2 0.85 0.35 0.35
897 2 0.8 0.4 0.4
680 2 0.95 0.35 0.35
899 2 0.9 0.4 0.4
682 2 0.05 0.45 0.35
702 2 0.05 0.55 0.35
901 2 0 0.5 0.4
903 2 0.1 0.5 0.4
684 2 0.15 0.45 0.35
704 2 0.15 0.55 0.35
905 2 0.2 0.5 0.4
686 2 0.25 0.45 0.35
706 2 0.25 0.55 0.35
907 2 0.3 0.5 0.4
688 2 0.35 0.45 0.35
708 2 0.35 0.55 0.35
909 2 0.4 0.5 0.4
690 2 0.45 0.45 0.35
692 2 0.55 0.45 0.35
710 2 0.45 0.55 0.35
712 2 0.55 0.55 0.35
911 2 0.5 0.5 0.4
694 2 0.65 0.45 0.35
714 2 0.65 0.55 0.35
913 2 0.6 0.5 0.4
696 2 0.75 0.45 0.35
716 2 0.75 0.55 0.35
915 2 0.7 0.5 0.4
698 2 0.85 0.45 0.35
718 2 0.85 0.55 0.35
917 2 0.8 0.5 0.4
700 2 0.95 0.45 0.35
720 2 0.95 0.55 0.35
919 2 0.9 0.5 0.4
722 2 0.05 0.65 0.35
921 2 0 0.6 0.4
923 2 0.1 0.6 0.4
724 2 0.15 0.65 0.35
925 2 0.2 0.6 0.4
726 2 0.25 0.65 0.35
927 2 0.3 0.6 0.4
728 2 0.35 0.65 0.35
929 2 0.4 0.6 0.4
730 2 0.45 0.65 0.35
732 2 0.55 0.65 0.35
931 2 0.5 0.6 0.4
734 2 0.65 0.65 0.35
933 2 0.6 0.6 0.4
736 2 0.75 0.65 0.35
935 2 0.7 0.6 0.4
738 2 0.85 0.65 0.35
937 2 0.8 0.6 0.4
740 2 0.95 0.65 0.35
939 2 0.9 0.6 0.4
742 2 0.05 0.75 0.35
941 2 0 0.7 0.4
943 2 0.1 0.7 0.4
744 2 0.15 0.75 0.35
945 2 0.2 0.7 0.4
746 2 0.25 0.75 0.35
947 2 0.3 0.7 0.4
748 2 0.35 0.75 0.35
949 2 0.4 0.7 0.4
750 2 0.45 0.75 0.35
752 2 0.55 0.75 0.35
951 2 0.5 0.7 0.4
754 2 0.65 0.75 0.35
953 2 0.6 0.7 0.4
756 2 0.75 0.75 0.35
955 2 0.7 0.7 0.4
758 2 0.85 0.75 0.35
957 2 0.8 0.7 0.4
760 2 0.95 0.75 0.35
959 2 0.9 0.7 0.4
762 2 0.05 0.85 0.35
961 2 0 0.8 0.4
963 2 0.1 0.8 0.4
764 2 0.15 0.85 0.35
965 2 0.2 0.8 0.4
766 2 0.25 0.85 0.35
967 2 0.3 0.8 0.4
768 2 0.35 0.85 0.35
969 2 0.4 0.8 0.4
770 2 0.45 0.85 0.35
772 2 0.55 0.85 0.35
971 2 0.5 0.8 0.4
774 2 0.65 0.85 0.35
973 2 0.6 0.8 0.4
776 2 0.75 0.85 0.35
975 2 0.7 0.8 0.4
778 2 0.85 0.85 0.35
977 2 0.8 0.8 0.4
780 2 0.95 0.85 0.35
979 2 0.9 0.8 0.4
782 2 0.05 0.95 0.35
981 2 0 0.9 0.4
983 2 0.1 0.9 0.4
784 2 0.15 0.95 0.35
985 2 0.2 0.9 0.4
786 2 0.25 0.95 0.35
987 2 0.3 0.9 0.4
788 2 0.35 0.95 0.35
989 2 0.4 0.9 0.4
790 2 0.45 0.95 0.35
792 2 0.55 0.95 0.35
991 2 0.5 0.9 0.4
794 2 0.65 0.95 0.35
993 2 0.6 0.9 0.4
796 2 0.75 0.95 0.35
995 2 0.7 0.9 0.4
798 2 0.85 0.95 0.35
997 2 0.8 0.9 0.4
800 2 0.95 0.95 0.35
999 2 0.9 0.9 0.4
802 2 0.05 0.05 0.45
1001 2 0 0 0.5
1002 2 0.05 0.05 0.55
1003 2 0.1 0 0.5
1021 2 0 0.1 0.5
1023 2 0.1 0.1 0.5
804 2 0.15 0.05 0.45
1004 2 0.15 0.05 0.55
1005 2 0.2 0 0.5
1025 2 0.2 0.1 0.5
806 2 0.25 0.05 0.45
1006 2 0.25 0.05 0.55
1007 2 0.3 0 0.5
1027 2 0.3 0.1 0.5
808 2 0.35 0.05 0.45
1008 2 0.35 0.05 0.55
1009 2 0.4 0 0.5
1029 2 0.4 0.1 0.5
810 2 0.45 0.05 0.45
812 2 0.55 0.05 0.45
1010 2 0.45 0.05 0.55
1011 2 0.5 0 0.5
1012 2 0.55 0.05 0.55
1031 2 0.5 0.1 0.5
814 2 0.65 0.05 0.45
1013 2 0.6 0 0.5
1014 2 0.65 0.05 0.55
1033 2 0.6 0.1 0.5
816 2 0.75 0.05 0.45
1015 2 0.7 0 0.5
1016 2 0.75 0.05 0.55
1035 2 0.7 0.1 0.5
818 2 0.85 0.05 0.45
1017 2 0.8 0 0.5
1018 2 0.85 0.05 0.55
1037 2 0.8 0.1 0.5
820 2 0.95 0.05 0.45
1019 2 0.9 0 0.5
1020 2 0.95 0.05 0.55
1039 2 0.9 0.1 0.5
822 2 0.05 0.15 0.45
1022 2 0.05 0.15 0.55
1041 2 0 0.2 0.5
1043 2 0.1 0.2 0.5
824 2 0.15 0.15 0.45
1024 2 0.15 0.15 0.55
1045 2 0.2 0.2 0.5
826 2 0.25 0.15 0.45
1026 2 0.25 0.15 0.55
1047 2 0.3 0.2 0.5
828 2 0.35 0.15 0.45
1028 2 0.35 0.15 0.55
1049 2 0.4 0.2 0.5
830 2 0.45 0.15 0.45
832 2 0.55 0.15 0.45
1030 2 0.45 0.15 0.55
1032 2 0.55 0.15 0.55
1051 2 0.5 0.2 0.5
834 2 0.65 0.15 0.45
1034 2 0.65 0.15 0.55
1053 2 0.6 0.2 0.5
836 2 0.75 0.15 0.45
1036 2 0.75 0.15 0.55
1055 2 0.7 0.2 0.5
838 2 0.85 0.15 0.45
1038 2 0.85 0.15 0.55
1057 2 0.8 0.2 0.5
840 2 0.95 0.15 0.45
1040 2 0.95 0.15 0.55
1059 2 0.9 0.2 0.5
842 2 0.05 0.25 0.45
1042 2 0.05 0.25 0.55
1061 2 0 0.3 0.5
1063 2 0.1 0.3 0.5
844 2 0.15 0.25 0.45
1044 2 0.15 0.25 0.55
1065 2 0.2 0.3 0.5
846 2 0.25 0.25 0.45
1046 2 0.25 0.25 0.55
1067 2 0.3 0.3 0.5
848 2 0.35 0.25 0.45
1048 2 0.35 0.25 0.55
1069 2 0.4 0.3 0.5
850 2 0.45 0.25 0.45
852 2 0.55 0.25 0.45
1050 2 0.45 0.25 0.55
1052 2 0.55 0.25 0.55
1071 2 0.5 0.3 0.5
854 2 0.65 0.25 0.45
1054 2 0.65 0.25 0.55
1073 2 0.6 0.3 0.5
856 2 0.75 0.25 0.45
1056 2 0.75 0.25 0.55
1075 2 0.7 0.3 0.5
858 2 0.85 0.25 0.45
1058 2 0.85 0.25 0.55
1077 2 0.8 0.3 0.5
860 2 0.95 0.25 0.45
1060 2 0.95 0.25 0.55
1079 2 0.9 0.3 0.5
862 2 0.05 0.35 0.45
1062 2 0.05 0.35 0.55
1081 2 0 0.4 0.5
1083 2 0.1 0.4 0.5
864 2 0.15 0.35 0.45
1064 2 0.15 0.35 0.55
1085 2 0.2 0.4 0.5
866 2 0.25 0.35 0.45
1066 2 0.25 0.35 0.55
1087 2 0.3 0.4 0.5
868 2 0.35 0.35 0.45
1068 2 0.35 0.35 0.55
1089 2 0.4 0.4 0.5
870 2 0.45 0.35 0.45
872 2 0.55 0.35 0.45
1070 2 0.45 0.35 0.55
1072 2 0.55 0.35 0.55
1091 2 0.5 0.4 0.5
874 2 0.65 0.35 0.45
1074 2 0.65 0.35 0.55
1093 2 0.6 0.4 0.5
876 2 0.75 0.35 0.45
1076 2 0.75 0.35 0.55
1095 2 0.7 0.4 0.5
878 2 0.85 0.35 0.45
1078 2 0.85 0.35 0.55
1097 2 0.8 0.4 0.5
880 2 0.95 0.35 0.45
1080 2 0.95 0.35 0.55
1099 2 0.9 0.4 0.5
882 2 0.05 0.45 0.45
902 2 0.05 0.55 0.45
1082 2 0.05 0.45 0.55
1101 2 0 0.5 0.5
1102 2 0.05 0.55 0.55
1103 2 0.1 0.5 0.5
884 2 0.15 0.45 0.45
904 2 0.15 0.55 0.45
1084 2 0.15 0.45 0.55
1104 2 0.15 0.55 0.55
1105 2 0.2 0.5 0.5
886 2 0.25 0.45 0.45
906 2 0.25 0.55 0.45
1086 2 0.25 0.45 0.55
1106 2 0.25 0.55 0.55
1107 2 0.3 0.5 0.5
888 2 0.35 0.45 0.45
908 2 0.35 0.55 0.45
1088 2 0.35 0.45 0.55
1108 2 0.35 0.55 0.55
1109 2 0.4 0.5 0.5
890 2 0.45 0.45 0.45
892 2 0.55 0.45 0.45
910 2 0.45 0.55 0.45
912 2 0.55 0.55 0.45
1090 2 0.45 0.45 0.55
1092 2 0.55 0.45 0.55
1110 2 0.45 0.55 0.55
1111 2 0.5 0.5 0.5
1112 2 0.55 0.55 0.55
894 2 0.65 0.45 0.45
914 2 0.65 0.55 0.45
1094 2 0.65 0.45 0.55
1113 2 0.6 0.5 0.5
1114 2 0.65 0.55 0.55
896 2 0.75 0.45 0.45
916 2 0.75 0.55 0.45
1096 2 0.75 0.45 0.55
1115 2 0.7 0.5 0.5
1116 2 0.75 0.55 0.55
898 2 0.85 0.45 0.45
918 2 0.85 0.55 0.45
1098 2 0.85 0.45 0.55
1117 2 0.8 0.5 0.5
1118 2 0.85 0.55 0.55
900 2 0.95 0.45 0.45
920 2 0.95 0.55 0.45
1100 2 0.95 0.45 0.55
1119 2 0.9 0.5 0.5
1120 2 0.95 0.55 0.55
922 2 0.05 0.65 0.45
1121 2 0 0.6 0.5
1122 2 0.05 0.65 0.55
1123 2 0.1 0.6 0.5
924 2 0.15 0.65 0.45
1124 2 0.15 0.65 0.55
1125 2 0.2 0.6 0.5
926 2 0.25 0.65 0.45
1126 2 0.25 0.65 0.55
1127 2 0.3 0.6 0.5
928 2 0.35 0.65 0.45
1128 2 0.35 0.65 0.55
1129 2 0.4 0.6 0.5
930 2 0.45 0.65 0.45
932 2 0.55 0.65 0.45
1130 2 0.45 0.65 0.55
1131 2 0.5 0.6 0.5
1132 2 0.55 0.65 0.55
934 2 0.65 0.65 0.45
1133 2 0.6 0.6 0.5
1134 2 0.65 0.65 0.55
936 2 0.75 0.65 0.45
1135 2 0.7 0.6 0.5
1136 2 0.75 0.65 0.55
938 2 0.85 0.65 0.45
1137 2 0.8 0.6 0.5
1138 2 0.85 0.65 0.55
940 2 0.95 0.65 0.45
1139 2 0.9 0.6 0.5
1140 2 0.95 0.65 0.55
942 2 0.05 0.75 0.45
1141 2 0 0.7 0.5
1142 2 0.05 0.75 0.55
1143 2 0.1 0.7 0.5
944 2 0.15 0.75 0.45
1144 2 0.15 0.75 0.55
1145 2 0.2 0.7 0.5
946 2 0.25 0.75 0.45
1146 2 0.25 0.75 0.55
1147 2 0.3 0.7 0.5
948 2 0.35 0.75 0.45
1148 2 0.35 0.75 0.55
1149 2 0.4 0.7 0.5
950 2 0.45 0.75 0.45
952 2 0.55 0.75 0.45
1150 2 0.45 0.75 0.55
1151 2 0.5 0.7 0.5
1152 2 0.55 0.75 0.55
954 2 0.65 0.75 0.45
1153 2 0.6 0.7 0.5
1154 2 0.65 0.75 0.55
956 2 0.75 0.75 0.45
1155 2 0.7 0.7 0.5
1156 2 0.75 0.75 0.55
958 2 0.85 0.75 0.45
1157 2 0.8 0.7 0.5
1158 2 0.85 0.75 0.55
960 2 0.95 0.75 0.45
1159 2 0.9 0.7 0.5
1160 2 0.95 0.75 0.55
962 2 0.05 0.85 0.45
1161 2 0 0.8 0.5
1162 2 0.05 0.85 0.55
1163 2 0.1 0.8 0.5
964 2 0.15 0.85 0.45
1164 2 0.15 0.85 0.55
1165 2 0.2 0.8 0.5
966 2 0.25 0.85 0.45
1166 2 0.25 0.85 0.55
1167 2 0.3 0.8 0.5
968 2 0.35 0.85 0.45
1168 2 0.35 0.85 0.55
1169 2 0.4 0.8 0.5
970 2 0.45 0.85 0.45
972 2 0.55 0.85 0.45
1170 2 0.45 0.85 0.55
1171 2 0.5 0.8 0.5
1172 2 0.55 0.85 0.55
974 2 0.65 0.85 0.45
1173 2 0.6 0.8 0.5
1174 2 0.65 0.85 0.55
976 2 0.75 0.85 0.45
1175 2 0.7 0.8 0.5
1176 2 0.75 0.85 0.55
978 2 0.85 0.85 0.45
1177 2 0.8 0.8 0.5
1178 2 0.85 0.85 0.55
980 2 0.95 0.85 0.45
1179 2 0.9 0.8 0.5
1180 2 0.95 0.85 0.55
982 2 0.05 0.95 0.45
1181 2 0 0.9 0.5
1182 2 0.05 0.95 0.55
1183 2 0.1 0.9 0.5
984 2 0.15 0.95 0.45
1184 2 0.15 0.95 0.55
1185 2 0.2 0.9 0.5
986 2 0.25 0.95 0.45
1186 2 0.25 0.95 0.55
1187 2 0.3 0.9 0.5
988 2 0.35 0.95 0.45
1188 2 0.35 0.95 0.55
1189 2 0.4 0.9 0.5
990 2 0.45 0.95 0.45
992 2 0.55 0.95 0.45
1190 2 0.45 0.95 0.55
1191 2 0.5 0.9 0.5
1192 2 0.55 0.95 0.55
994 2 0.65 0.95 0.45
1193 2 0.6 0.9 0.5
1194 2 0.65 0.95 0.55
996 2 0.75 0.95 0.45
1195 2 0.7 0.9 0.5
1196 2 0.75 0.95 0.55
998 2 0.85 0.95 0.45
1197 2 0.8 0.9 0.5
1198 2 0.85 0.95 0.55
1000 2 0.95 0.95 0.45
1199 2 0.9 0.9 0.5
1200 2 0.95 0.95 0.55
1201 2 0 0 0.6
1202 2 0.05 0.05 0.65
1203 2 0.1 0 0.6
1221 2 0 0.1 0.6
1223 2 0.1 0.1 0.6
1204 2 0.15 0.05 0.65
1205 2 0.2 0 0.6
1225 2 0.2 0.1 0.6
1206 2 0.25 0.05 0.65
1207 2 0.3 0 0.6
1227 2 0.3 0.1 0.6
1208 2 0.35 0.05 0.65
1209 2 0.4 0 0.6
1229 2 0.4 0.1 0.6
1210 2 0.45 0.05 0.65
1211 2 0.5 0 0.6
1212 2 0.55 0.05 0.65
1231 2 0.5 0.1 0.6
1213 2 0.6 0 0.6
1214 2 0.65 0.05 0.65
1233 2 0.6 0.1 0.6
1215 2 0.7 0 0.6
1216 2 0.75 0.05 0.65
1235 2 0.7 0.1 0.6
1217 2 0.8 0 0.6
1218 2 0.85 0.05 0.65
1237 2 0.8 0.1 0.6
1219 2 0.9 0 0.6
1220 2 0.95 0.05 0.65
1239 2 0.9 0.1 0.6
1222 2 0.05 0.15 0.65
1241 2 0 0.2 0.6
1243 2 0.1 0.2 0.6
1224 2 0.15 0.15 0.65
1245 2 0.2 0.2 0.6
1226 2 0.25 0.15 0.65
1247 2 0.3 0.2 0.6
1228 2 0.35 0.15 0.65
1249 2 0.4 0.2 0.6
1230 2 0.45 0.15 0.65
1232 2 0.55 0.15 0.65
1251 2 0.5 0.2 0.6
1234 2 0.65 0.15 0.65
1253 2 0.6 0.2 0.6
1236 2 0.75 0.15 0.65
1255 2 0.7 0.2 0.6
1238 2 0.85 0.15 0.65
1257 2 0.8 0.2 0.6
1240 2 0.95 0.15 0.65
1259 2 0.9 0.2 0.6
1242 2 0.05 0.25 0.65
1261 2 0 0.3 0.6
1263 2 0.1 0.3 0.6
1244 2 0.15 0.25 0.65
1265 2 0.2 0.3 0.6
1246 2 0.25 0.25 0.65
1267 2 0.3 0.3 0.6
1248 2 0.35 0.25 0.65
1269 2 0.4 0.3 0.6
1250 2 0.45 0.25 0.65
1252 2 0.55 0.25 0.65
1271 2 0.5 0.3 0.6
1254 2 0.65 0.25 0.65
1273 2 0.6 0.3 0.6
1256 2 0.75 0.25 0.65
1275 2 0.7 0.3 0.6
1258 2 0.85 0.25 0.65
1277 2 0.8 0.3 0.6
1260 2 0.95 0.25 0.65
1279 2 0.9 0.3 0.6
1262 2 0.05 0.35 0.65
1281 2 0 0.4 0.6
1283 2 0.1 0.4 0.6
1264 2 0.15 0.35 0.65
1285 2 0.2 0.4 0.6
1266 2 0.25 0.35 0.65
1287 2 0.3 0.4 0.6
1268 2 0.35 0.35 0.65
1289 2 0.4 0.4 0.6
1270 2 0.45 0.35 0.65
1272 2 0.55 0.35 0.65
1291 2 0.5 0.4 0.6
1274 2 0.65 0.35 0.65
1293 2 0.6 0.4 0.6
1276 2 0.75 0.35 0.65
1295 2 0.7 0.4 0.6
1278 2 0.85 0.35 0.65
1297 2 0.8 0.4 0.6
1280 2 0.95 0.35 0.65
1299 2 0.9 0.4 0.6
1282 2 0.05 0.45 0.65
1301 2 0 0.5 0.6
1302 2 0.05 0.55 0.65
1303 2 0.1 0.5 0.6
1284 2 0.15 0.45 0.65
1304 2 0.15 0.55 0.65
1305 2 0.2 0.5 0.6
1286 2 0.25 0.45 0.65
1306 2 0.25 0.55 0.65
1307 2 0.3 0.5 0.6
1288 2 0.35 0.45 0.65
1308 2 0.35 0.55 0.65
1309 2 0.4 0.5 0.6
1290 2 0.45 0.45 0.65
1292 2 0.55 0.45 0.65
1310 2 0.45 0.55 0.65
1311 2 0.5 0.5 0.6
1312 2 0.55 0.55 0.65
1294 2 0.65 0.45 0.65
1313 2 0.6 0.5 0.6
1314 2 0.65 0.55 0.65
1296 2 0.75 0.45 0.65
1315 2 0.7 0.5 0.6
1316 2 0.75 0.55 0.65
1298 2 0.85 0.45 0.65
1317 2 0.8 0.5 0.6
1318 2 0.85 0.55 0.65
1300 2 0.95 0.45 0.65
1319 2 0.9 0.5 0.6
1320 2 0.95 0.55 0.65
1321 2 0 0.6 0.6
1322 2 0.05 0.65 0.65
1323 2 0.1 0.6 0.6
1324 2 0.15 0.65 0.65
1325 2 0.2 0.6 0.6
1326 2 0.25 0.65 0.65
1327 2 0.3 0.6 0.6
1328 2 0.35 0.65 0.65
1329 2 0.4 0.6 0.6
1330 2 0.45 0.65 0.65
1331 2 0.5 0.6 0.6
1332 2 0.55 0.65 0.65
1333 2 0.6 0.6 0.6
1334 2 0.65 0.65 0.65
1335 2 0.7 0.6 0.6
1336 2 0.75 0.65 0.65
1337 2 0.8 0.6 0.6
1338 2 0.85 0.65 0.65
1339 2 0.9 0.6 0.6
1340 2 0.95 0.65 0.65
1341 2 0 0.7 0.6
1342 2 0.05 0.75 0.65
1343 2 0.1 0.7 0.6
1344 2 0.15 0.75 0.65
1345 2 0.2 0.7 0.6
1346 2 0.25 0.75 0.65
1347 2 0.3 0.7 0.6
1348 2 0.35 0.75 0.65
1349 2 0.4 0.7 0.6
1350 2 0.45 0.75 0.65
1351 2 0.5 0.7 0.6
1352 2 0.55 0.75 0.65
1353 2 0.6 0.7 0.6
1354 2 0.65 0.75 0.65
1355 2 0.7 0.7 0.6
1356 2 0.75 0.75 0.65
1357 2 0.8 0.7 0.6
1358 2 0.85 0.75 0.65
1359 2 0.9 0.7 0.6
1360 2 0.95 0.75 0.65
1361 2 0 0.8 0.6
1362 2 0.05 0.85 0.65
1363 2 0.1 0.8 0.6
1364 2 0.15 0.85 0.65
1365 2 0.2 0.8 0.6
1366 2 0.25 0.85 0.65
1367 2 0.3 0.8 0.6
1368 2 0.35 0.85 0.65
1369 2 0.4 0.8 0.6
1370 2 0.45 0.85 0.65
1371 2 0.5 0.8 0.6
1372 2 0.55 0.85 0.65
1373 2 0.6 0.8 0.6
1374 2 0.65 0.85 0.65
1375 2 0.7 0.8 0.6
1376 2 0.75 0.85 0.65
1377 2 0.8 0.8 0.6
1378 2 0.85 0.85 0.65
1379 2 0.9 0.8 0.6
1380 2 0.95 0.85 0.65
1381 2 0 0.9 0.6
1382 2 0.05 0.95 0.65
1383 2 0.1 0.9 0.6
1384 2 0.15 0.95 0.65
1385 2 0.2 0.9 0.6
1386 2 0.25 0.95 0.65
1387 2 0.3 0.9 0.6
1388 2 0.35 0.95 0.65
1389 2 0.4 0.9 0.6
1390 2 0.45 0.95 0.65
1391 2 0.5 0.9 0.6
1392 2 0.55 0.95 0.65
1393 2 0.6 0.9 0.6
1394 2 0.65 0.95 0.65
1395 2 0.7 0.9 0.6
1396 2 0.75 0.95 0.65
1397 2 0.8 0.9 0.6
1398 2 0.85 0.95 0.65
1399 2 0.9 0.9 0.6
1400 2 0.95 0.95 0.65
1401 2 0 0 0.7
1402 2 0.05 0.05 0.75
1403 2 0.1 0 0.7
1421 2 0 0.1 0.7
1423 2 0.1 0.1 0.7
1404 2 0.15 0.05 0.75
1405 2 0.2 0 0.7
1425 2 0.2 0.1 0.7
1406 2 0.25 0.05 0.75
1407 2 0.3 0 0.7
1427 2 0.3 0.1 0.7
1408 2 0.35 0.05 0.75
1409 2 0.4 0 0.7
1429 2 0.4 0.1 0.7
1410 2 0.45 0.05 0.75
1411 2 0.5 0 0.7
1412 2 0.55 0.05 0.75
1431 2 0.5 0.1 0.7
1413 2 0.6 0 0.7
1414 2 0.65 0.05 0.75
1433 2 0.6 0.1 0.7
1415 2 0.7 0 0.7
1416 2 0.75 0.05 0.75
1435 2 0.7 0.1 0.7
1417 2 0.8 0 0.7
1418 2 0.85 0.05 0.75
1437 2 0.8 0.1 0.7
1419 2 0.9 0 0.7
1420 2 0.95 0.05 0.75
1439 2 0.9 0.1 0.7
1422 2 0.05 0.15 0.75
1441 2 0 0.2 0.7
1443 2 0.1 0.2 0.7
1424 2 0.15 0.15 0.75
1445 2 0.2 0.2 0.7
1426 2 0.25 0.15 0.75
1447 2 0.3 0.2 0.7
1428 2 0.35 0.15 0.75
1449 2 0.4 0.2 0.7
1430 2 0.45 0.15 0.75
1432 2 0.55 0.15 0.75
1451 2 0.5 0.2 0.7
1434 2 0.65 0.15 0.75
1453 2 0.6 0.2 0.7
1436 2 0.75 0.15 0.75
1455 2 0.7 0.2 0.7
1438 2 0.85 0.15 0.75
1457 2 0.8 0.2 0.7
1440 2 0.95 0.15 0.75
1459 2 0.9 0.2 0.7
1442 2 0.05 0.25 0.75
1461 2 0 0.3 0.7
1463 2 0.1 0.3 0.7
1444 2 0.15 0.25 0.75
1465 2 0.2 0.3 0.7
1446 2 0.25 0.25 0.75
1467 2 0.3 0.3 0.7
1448 2 0.35 0.25 0.75
1469 2 0.4 0.3 0.7
1450 2 0.45 0.25 0.75
1452 2 0.55 0.25 0.75
1471 2 0.5 0.3 0.7
1454 2 0.65 0.25 0.75
1473 2 0.6 0.3 0.7
1456 2 0.75 0.25 0.75
1475 2 0.7 0.3 0.7
1458 2 0.85 0.25 0.75
1477 2 0.8 0.3 0.7
1460 2 0.95 0.25 0.75
1479 2 0.9 0.3 0.7
1462 2 0.05 0.35 0.75
1481 2 0 0.4 0.7
1483 2 0.1 0.4 0.7
1464 2 0.15 0.35 0.75
1485 2 0.2 0.4 0.7
1466 2 0.25 0.35 0.75
1487 2 0.3 0.4 0.7
1468 2 0.35 0.35 0.75
1489 2 0.4 0.4 0.7
1470 2 0.45 0.35 0.75
1472 2 0.55 0.35 0.75
1491 2 0.5 0.4 0.7
1474 2 0.65 0.35 0.75
1493 2 0.6 0.4 0.7
1476 2 0.75 0.35 0.75
1495 2 0.7 0.4 0.7
1478 2 0.85 0.35 0.75
1497 2 0.8 0.4 0.7
1480 2 0.95 0.35 0.75
1499 2 0.9 0.4 0.7
1482 2 0.05 0.45 0.75
1501 2 0 0.5 0.7
1502 2 0.05 0.55 0.75
1503 2 0.1 0.5 0.7
1484 2 0.15 0.45 0.75
1504 2 0.15 0.55 0.75
1505 2 0.2 0.5 0.7
1486 2 0.25 0.45 0.75
1506 2 0.25 0.55 0.75
1507 2 0.3 0.5 0.7
1488 2 0.35 0.45 0.75
1508 2 0.35 0.55 0.75
1509 2 0.4 0.5 0.7
1490 2 0.45 0.45 0.75
1492 2 0.55 0.45 0.75
1510 2 0.45 0.55 0.75
1511 2 0.5 0.5 0.7
1512 2 0.55 0.55 0.75
1494 2 0.65 0.45 0.75
1513 2 0.6 0.5 0.7
1514 2 0.65 0.55 0.75
1496 2 0.75 0.45 0.75
1515 2 0.7 0.5 0.7
1516 2 0.75 0.55 0.75
1498 2 0.85 0.45 0.75
1517 2 0.8 0.5 0.7
1518 2 0.85 0.55 0.75
1500 2 0.95 0.45 0.75
1519 2 0.9 0.5 0.7
1520 2 0.95 0.55 0.75
1521 2 0 0.6 0.7
1522 2 0.05 0.65 0.75
1523 2 0.1 0.6 0.7
1524 2 0.15 0.65 0.75
1525 2 0.2 0.6 0.7
1526 2 0.25 0.65 0.75
1527 2 0.3 0.6 0.7
1528 2 0.35 0.65 0.75
1529 2 0.4 0.6 0.7
1530 2 0.45 0.65 0.75
1531 2 0.5 0.6 0.7