LAMMPS (7 Feb 2024 - Update 1)
OMP_NUM_THREADS environment is not set. Defaulting to 1 thread. (src/comm.cpp:98)
  using 1 OpenMP thread(s) per MPI task
#============Initialization=================
units 			metal
atom_style 		atomic
boundary 		p p p

############################################
#              CLI Variables               #
############################################
variable 		seed index 200093          #
variable 		N index 3				   #
variable 		iter index 1000000         #
variable 		iterther index 100000      #
variable 		iexport index 1000         #
variable 		tempchauf index 3000       #
variable 		Tdamp index 0.001          #
variable 		timestep index 0.0001      #
variable 		box_size index 10		   #
############################################
############################################
#=========Simulation box definition=========
lattice 		sc 1.0
Lattice spacing in x,y,z = 1 1 1
region 			bigbox block 0 ${box_size} 0 ${box_size} 0 ${box_size}
region 			bigbox block 0 10 0 ${box_size} 0 ${box_size}
region 			bigbox block 0 10 0 10 0 ${box_size}
region 			bigbox block 0 10 0 10 0 10
create_box 		1 bigbox
Created orthogonal box = (0 0 0) to (10 10 10)
  1 by 1 by 1 MPI processor grid

#==================Atoms====================
region 			safezone block 6 9 6 9 6 9 units box
create_atoms 	1 random ${N} ${seed} safezone
create_atoms 	1 random 3 ${seed} safezone
create_atoms 	1 random 3 200093 safezone
Created 3 atoms
  using lattice units in orthogonal box = (0 0 0) to (10 10 10)
  create_atoms CPU = 0.000 seconds
labelmap 		atom 1 C
mass 			* 12.01



#==========Velocity initialization==========
velocity 		all create 0.0000001 1563967 rot yes dist gaussian

#======Pair style for atom interactions=============
pair_style 		airebo 1.8 1 1
pair_coeff 		* * CH.airebo C
Reading airebo potential file CH.airebo with DATE: 2011-10-25

#==============Neighbor selection===================
neighbor 		0.3 bin
neigh_modify 	every 1 delay 0 check yes



#==============Custom Wall force====================
#==========Wall with harmonic potential=============
#variable       k equal 10.0

#fix             xlo_wall all wall/harmonic xlo EDGE v_k 1.0 0.7
#fix             xhi_wall all wall/harmonic xhi EDGE v_k 1.0 0.7
#fix             ylo_wall all wall/harmonic ylo EDGE v_k 1.0 0.7
#fix             yhi_wall all wall/harmonic yhi EDGE v_k 1.0 0.7
#fix             zlo_wall all wall/harmonic zlo EDGE v_k 1.0 0.7
#fix             zhi_wall all wall/harmonic zhi EDGE v_k 1.0 0.7



#=====================Timestep======================
timestep 		${timestep}
timestep 		0.0001

#===============Define dump command=================
dump 			1 all cfg 100000 ./dump/dump.tensile_*.cfg mass type xs ys zs vx vy vz id

#========System temperature printing info===========
thermo_style 	custom step temp etotal epair pe ke
thermo 			${iexport}	# 1'000'000
thermo 			1000	



#====================CRC Cycle======================

#=============Condensation et chauffe===============

# Minimize during the heating phase
#min_style       sd
#minimize        1.0e-5 1.0e-7 500 1000

fix 			1 all nve
fix 			2 all temp/berendsen 0.0 ${tempchauf} ${Tdamp}
fix 			2 all temp/berendsen 0.0 3000 ${Tdamp}
fix 			2 all temp/berendsen 0.0 3000 0.001
fix             3 all momentum 1 linear 1 1 1 angular rescale

run 			${iter}
run 			1000000
Neighbor list info ...
  update: every = 1 steps, delay = 0 steps, check = yes
  max neighbors/atom: 2000, page size: 100000
  master list distance cutoff = 8.116371
  ghost atom cutoff = 8.116371
  binsize = 4.0581855, bins = 3 3 3
  1 neighbor lists, perpetual/occasional/extra = 1 0 0
  (1) pair airebo, perpetual
      attributes: full, newton on, ghost
      pair build: full/bin/ghost
      stencil: full/ghost/bin/3d
      bin: standard
Per MPI rank memory allocation (min/avg/max) = 3.878 | 3.878 | 3.878 Mbytes
   Step          Temp          TotEng         E_pair         PotEng         KinEng    
         0   1e-07         -5.1242202     -5.1242202     -5.1242202      2.5852029e-11
      1000   3.0795567     -6.2090412     -6.2098373     -6.2098373      0.0007961279 
      2000   70.037889     -11.9287       -11.946807     -11.946807      0.018106215  
      3000   21.467948     -12.775039     -12.780589     -12.780589      0.0055499002 
      4000   10.138187     -12.893261     -12.895882     -12.895882      0.002620927  
      5000   29.856406     -12.794863     -12.802582     -12.802582      0.0077184868 
      6000   13.308841     -12.869355     -12.872796     -12.872796      0.0034406055 
      7000   16.728206     -12.880185     -12.88451      -12.88451       0.0043245807 
      8000   19.254335     -12.870721     -12.875698     -12.875698      0.0049776363 
      9000   21.175239     -12.856552     -12.862026     -12.862026      0.0054742289 
     10000   32.803932     -12.892242     -12.900722     -12.900722      0.0084804821 
     11000   27.644729     -12.879175     -12.886321     -12.886321      0.0071467233 
     12000   20.086353     -12.845805     -12.850998     -12.850998      0.0051927298 
     13000   36.201329     -12.885872     -12.895231     -12.895231      0.009358778  
     14000   51.379075     -12.87856      -12.891843     -12.891843      0.013282533  
     15000   37.506718     -12.861281     -12.870978     -12.870978      0.0096962477 
     16000   43.586075     -12.887072     -12.898339     -12.898339      0.011267885  
     17000   63.579523     -12.867146     -12.883583     -12.883583      0.016436597  
     18000   48.253284     -12.854153     -12.866628     -12.866628      0.012474453  
     19000   55.269098     -12.883651     -12.897939     -12.897939      0.014288183  
     20000   84.910009     -12.859817     -12.881768     -12.881768      0.02195096   
     21000   62.43884      -12.850703     -12.866845     -12.866845      0.016141707  
     22000   63.87736      -12.881888     -12.898401     -12.898401      0.016513594  
     23000   89.877198     -12.857721     -12.880956     -12.880956      0.023235079  
     24000   66.484262     -12.843197     -12.860384     -12.860384      0.017187531  
     25000   68.125844     -12.879263     -12.896875     -12.896875      0.017611913  
     26000   87.345334     -12.854569     -12.87715      -12.87715       0.022580541  
     27000   69.127325     -12.831331     -12.849202     -12.849202      0.017870816  
     28000   74.17496      -12.874943     -12.894119     -12.894119      0.019175732  
     29000   91.350138     -12.849856     -12.873472     -12.873472      0.023615864  
     30000   77.449155     -12.817761     -12.837783     -12.837783      0.020022178  
     31000   83.916844     -12.869963     -12.891657     -12.891657      0.021694207  
     32000   100.09302     -12.844906     -12.870782     -12.870782      0.025876076  
     33000   91.797462     -12.808099     -12.83183      -12.83183       0.023731506  
     34000   94.445027     -12.864574     -12.88899      -12.88899       0.024415956  
     35000   109.81123     -12.839722     -12.86811      -12.86811       0.028388431  
     36000   102.5828      -12.80365      -12.83017      -12.83017       0.026519734  
     37000   103.39445     -12.856452     -12.883182     -12.883182      0.026729562  
     38000   119.023       -12.834331     -12.8651       -12.8651        0.030769862  
     39000   105.87892     -12.799528     -12.8269       -12.8269        0.02737185   
     40000   111.20278     -12.853959     -12.882707     -12.882707      0.028748174  
     41000   114.85861     -12.841304     -12.870997     -12.870997      0.029693282  
     42000   103.6107      -12.790801     -12.817587     -12.817587      0.026785469  
     43000   121.28563     -12.852        -12.883355     -12.883355      0.031354796  
     44000   142.31604     -12.838082     -12.874874     -12.874874      0.036791584  
     45000   113.15278     -12.773953     -12.803205     -12.803205      0.029252289  
     46000   131.39095     -12.856829     -12.890796     -12.890796      0.033967226  
     47000   208.45985     -12.787288     -12.841179     -12.841179      0.053891101  
     48000   141.92242     -12.787583     -12.824273     -12.824273      0.036689825  
     49000   135.01911     -12.853505     -12.88841      -12.88841       0.034905179  
     50000   185.82365     -12.792886     -12.840925     -12.840925      0.048039183  
     51000   104.42484     -12.778535     -12.805531     -12.805531      0.026995941  
     52000   149.5867      -12.858944     -12.897615     -12.897615      0.038671196  
     53000   257.53639     -12.749167     -12.815746     -12.815746      0.066578381  
     54000   152.08601     -12.780427     -12.819744     -12.819744      0.03931732   
     55000   156.68717     -12.843347     -12.883854     -12.883854      0.040506812  
     56000   101.46733     -12.711534     -12.737766     -12.737766      0.026231364  
     57000   166.95001     -12.843981     -12.887141     -12.887141      0.043159966  
     58000   223.31733     -12.776017     -12.833749     -12.833749      0.057732062  
     59000   142.49911     -12.749777     -12.786616     -12.786616      0.036838912  
     60000   161.32836     -12.846191     -12.887898     -12.887898      0.041706655  
     61000   277.33877     -12.75916      -12.830857     -12.830857      0.071697699  
     62000   192.25484     -12.785943     -12.835645     -12.835645      0.049701778  
     63000   204.21547     -12.812093     -12.864887     -12.864887      0.052793843  
     64000   158.20731     -12.725156     -12.766056     -12.766056      0.040899799  
     65000   180.30123     -12.839662     -12.886273     -12.886273      0.046611526  
     66000   300.63148     -12.733047     -12.810767     -12.810767      0.077719339  
     67000   195.37364     -12.745963     -12.796471     -12.796471      0.050508051  
     68000   184.18897     -12.834696     -12.882312     -12.882312      0.047616587  
     69000   175.40066     -12.678243     -12.723587     -12.723587      0.04534463   
     70000   205.43383     -12.829993     -12.883101     -12.883101      0.053108813  
     71000   257.02683     -12.749223     -12.81567      -12.81567       0.06644665   
     72000   142.46062     -12.722549     -12.759378     -12.759378      0.036828961  
     73000   209.85778     -12.841266     -12.895518     -12.895518      0.054252494  
     74000   366.64663     -12.656597     -12.751382     -12.751382      0.094785592  
     75000   210.72271     -12.789154     -12.84363      -12.84363       0.054476095  
     76000   261.23664     -12.756852     -12.824387     -12.824387      0.067534972  
     77000   209.65659     -12.736621     -12.790822     -12.790822      0.054200483  
     78000   236.50308     -12.832327     -12.893468     -12.893468      0.061140845  
     79000   269.51223     -12.611063     -12.680737     -12.680737      0.069674381  
     80000   180.33477     -12.766457     -12.813077     -12.813077      0.046620198  
     81000   270.20623     -12.802598     -12.872452     -12.872452      0.069853794  
     82000   223.31515     -12.674484     -12.732216     -12.732216      0.057731497  
     83000   236.4817      -12.82934      -12.890475     -12.890475      0.061135319  
     84000   318.16169     -12.614785     -12.697036     -12.697036      0.082251252  
     85000   237.49467     -12.769012     -12.830409     -12.830409      0.06139719   
     86000   272.76372     -12.799339     -12.869854     -12.869854      0.070514956  
     87000   210.00365     -12.586122     -12.640412     -12.640412      0.054290204  
     88000   268.82001     -12.822808     -12.892303     -12.892303      0.069495428  
     89000   297.32615     -12.502475     -12.57934      -12.57934       0.076864843  
     90000   250.0177      -12.782234     -12.846869     -12.846869      0.064634648  
     91000   302.97239     -12.789662     -12.867987     -12.867987      0.07832451   
     92000   240.15441     -12.623726     -12.68581      -12.68581       0.062084787  
     93000   249.32854     -12.803331     -12.867788     -12.867788      0.064456487  
     94000   293.25881     -12.674689     -12.750502     -12.750502      0.075813353  
     95000   284.85639     -12.781651     -12.855293     -12.855293      0.073641157  
     96000   291.75847     -12.782802     -12.858227     -12.858227      0.075425486  
     97000   297.44832     -12.639779     -12.716675     -12.716675      0.076896426  
     98000   327.04539     -12.790235     -12.874783     -12.874783      0.08454787   
     99000   190.50484     -12.590446     -12.639695     -12.639695      0.049249366  
    100000   317.20962     -12.746298     -12.828303     -12.828303      0.082005123  
    101000   291.18637     -12.753938     -12.829216     -12.829216      0.075277586  
    102000   245.73172     -12.643691     -12.707218     -12.707218      0.063526636  
    103000   339.88931     -12.806202     -12.894071     -12.894071      0.087868282  
    104000   457.89329     -12.5176       -12.635974     -12.635974      0.11837471   
    105000   293.56448     -12.781699     -12.857591     -12.857591      0.075892375  
    106000   325.45853     -12.719023     -12.803161     -12.803161      0.084137634  
    107000   243.68554     -12.645571     -12.708569     -12.708569      0.062997657  
    108000   364.37514     -12.797552     -12.89175      -12.89175       0.094198367  
    109000   320.37462     -12.591868     -12.674691     -12.674691      0.08282334   
    110000   339.69803     -12.78189      -12.869709     -12.869709      0.087818833  
    111000   275.15697     -12.546713     -12.617847     -12.617847      0.071133658  
    112000   301.42518     -12.75739      -12.835314     -12.835314      0.077924524  
    113000   383.8303      -12.618743     -12.717971     -12.717971      0.09922792   
    114000   289.7375      -12.705464     -12.780367     -12.780367      0.074903022  
    115000   421.90862     -12.666308     -12.77538      -12.77538       0.10907194   
    116000   269.83641     -12.663694     -12.733453     -12.733453      0.069758187  
    117000   429.26343     -12.717807     -12.82878      -12.82878       0.11097331   
    118000   324.51256     -12.63723      -12.721123     -12.721123      0.083893081  
    119000   394.84183     -12.735961     -12.838036     -12.838036      0.10207462   
    120000   359.37149     -12.651068     -12.743972     -12.743972      0.092904823  
    121000   378.73997     -12.727002     -12.824914     -12.824914      0.097911967  
    122000   360.68018     -12.672459     -12.765702     -12.765702      0.093243145  
    123000   369.98056     -12.676804     -12.772452     -12.772452      0.095647483  
    124000   353.47146     -12.728627     -12.820006     -12.820006      0.091379545  
    125000   376.62735     -12.534443     -12.631809     -12.631809      0.097365812  
    126000   331.36581     -12.742492     -12.828157     -12.828157      0.085664786  
    127000   516.77361     -12.43229      -12.565887     -12.565887      0.13359646   
    128000   356.79442     -12.772283     -12.864521     -12.864521      0.092238597  
    129000   486.05444     -12.30603      -12.431685     -12.431685      0.12565493   
    130000   358.37837     -12.785681     -12.878329     -12.878329      0.09264808   
    131000   607.70715     -12.380563     -12.537667     -12.537667      0.15710463   
    132000   369.40447     -12.778707     -12.874206     -12.874206      0.095498551  
    133000   385.13439     -12.447412     -12.546977     -12.546977      0.099565054  
    134000   395.34648     -12.756454     -12.858659     -12.858659      0.10220509   
    135000   315.91786     -12.490004     -12.571675     -12.571675      0.081671176  
    136000   446.29004     -12.739285     -12.85466      -12.85466       0.11537503   
    137000   324.69938     -12.55654      -12.640482     -12.640482      0.083941378  
    138000   470.13813     -12.685039     -12.806579     -12.806579      0.12154025   
    139000   317.51466     -12.610573     -12.692657     -12.692657      0.082083983  
    140000   556.53907     -12.618617     -12.762494     -12.762494      0.14387664   
    141000   386.89891     -12.654259     -12.754281     -12.754281      0.10002122   
    142000   618.72633     -12.557931     -12.717884     -12.717884      0.15995331   
    143000   404.68327     -12.726314     -12.830933     -12.830933      0.10461884   
    144000   403.18286     -12.403534     -12.507765     -12.507765      0.10423095   
    145000   429.98495     -12.76542      -12.87658      -12.87658       0.11115983   
    146000   299.81172     -12.359459     -12.436967     -12.436967      0.077507412  
    147000   494.97461     -12.732592     -12.860553     -12.860553      0.12796098   
    148000   362.47873     -12.574409     -12.668117     -12.668117      0.093708107  
    149000   542.89332     -12.537016     -12.677365     -12.677365      0.14034894   
    150000   424.1652      -12.746925     -12.85658      -12.85658       0.10965531   
    151000   418.3946      -12.381735     -12.489898     -12.489898      0.10816349   
    152000   489.80241     -12.721714     -12.848338     -12.848338      0.12662386   
    153000   402.45901     -12.576126     -12.68017      -12.68017       0.10404382   
    154000   493.62131     -12.57443      -12.702041     -12.702041      0.12761112   
    155000   432.99353     -12.71882      -12.830757     -12.830757      0.11193761   
    156000   357.02361     -12.339827     -12.432125     -12.432125      0.092297846  
    157000   477.30726     -12.760343     -12.883737     -12.883737      0.12339361   
    158000   427.77211     -12.467425     -12.578012     -12.578012      0.11058777   
    159000   603.43696     -12.56295      -12.718951     -12.718951      0.1560007    
    160000   467.63281     -12.712714     -12.833607     -12.833607      0.12089257   
    161000   405.83128     -12.313778     -12.418693     -12.418693      0.10491562   
    162000   481.53963     -12.752341     -12.876829     -12.876829      0.12448776   
    163000   358.21987     -12.387253     -12.479861     -12.479861      0.092607105  
    164000   495.9194      -12.632871     -12.761077     -12.761077      0.12820523   
    165000   416.25145     -12.657204     -12.764814     -12.764814      0.10760945   
    166000   593.73283     -12.435609     -12.589101     -12.589101      0.15349198   
    167000   489.29803     -12.727648     -12.854141     -12.854141      0.12649347   
    168000   346.8963      -12.285621     -12.375301     -12.375301      0.089679733  
    169000   562.58352     -12.696532     -12.841971     -12.841971      0.14543925   
    170000   406.34818     -12.518337     -12.623386     -12.623386      0.10504925   
    171000   560.08625     -12.542436     -12.687229     -12.687229      0.14479366   
    172000   444.33021     -12.677982     -12.792851     -12.792851      0.11486837   
    173000   374.97746     -12.250005     -12.346944     -12.346944      0.09693928   
    174000   511.9427      -12.748124     -12.880472     -12.880472      0.13234757   
    175000   483.89224     -12.401627     -12.526723     -12.526723      0.12509596   
    176000   591.53093     -12.634298     -12.787221     -12.787221      0.15292275   
    177000   479.51272     -12.589676     -12.713639     -12.713639      0.12396377   
    178000   816.43357     -12.316186     -12.52725      -12.52725       0.21106464   
    179000   499.31828     -12.726339     -12.855423     -12.855423      0.12908391   
    180000   537.50804     -12.045003     -12.183959     -12.183959      0.13895673   
    181000   560.947       -12.666634     -12.811651     -12.811651      0.14501618   
    182000   537.56516     -12.524649     -12.663621     -12.663621      0.1389715    
    183000   607.42976     -12.484848     -12.64188      -12.64188       0.15703292   
    184000   547.23801     -12.693712     -12.835184     -12.835184      0.14147213   
    185000   415.61039     -12.182164     -12.289607     -12.289607      0.10744372   
    186000   552.73133     -12.72932      -12.872212     -12.872212      0.14289226   
    187000   435.5097      -12.319376     -12.431964     -12.431964      0.11258809   
    188000   571.83463     -12.641174     -12.789005     -12.789005      0.14783085   
    189000   556.67437     -12.54959      -12.693502     -12.693502      0.14391162   
    190000   687.06192     -12.434088     -12.611707     -12.611707      0.17761945   
    191000   563.61291     -12.687623     -12.833329     -12.833329      0.14570537   
    192000   567.97534     -12.247767     -12.3946       -12.3946        0.14683315   
    193000   639.31041     -12.647572     -12.812846     -12.812846      0.16527471   
    194000   494.74792     -12.486697     -12.614599     -12.614599      0.12790238   
    195000   646.11783     -12.485714     -12.652749     -12.652749      0.16703457   
    196000   559.31023     -12.672785     -12.817378     -12.817378      0.14459304   
    197000   442.05566     -12.213304     -12.327584     -12.327584      0.11428036   
    198000   608.5119      -12.699035     -12.856348     -12.856348      0.15731267   
    199000   430.34036     -12.225869     -12.337121     -12.337121      0.11125171   
    200000   655.30315     -12.639118     -12.808527     -12.808527      0.16940916   
    201000   500.72276     -12.496206     -12.625653     -12.625653      0.12944699   
    202000   612.19541     -12.471771     -12.630036     -12.630036      0.15826493   
    203000   552.03875     -12.643117     -12.78583      -12.78583       0.14271322   
    204000   414.69322     -12.121494     -12.228701     -12.228701      0.10720661   
    205000   639.95455     -12.699937     -12.865378     -12.865378      0.16544124   
    206000   529.78018     -12.158734     -12.295693     -12.295693      0.13695893   
    207000   703.57216     -12.658721     -12.840609     -12.840609      0.18188768   
    208000   484.28537     -12.434853     -12.560051     -12.560051      0.12519759   
    209000   670.83873     -12.465478     -12.638903     -12.638903      0.17342542   
    210000   545.03589     -12.605468     -12.746371     -12.746371      0.14090284   
    211000   643.7638      -12.0533       -12.219726     -12.219726      0.16642601   
    212000   649.11564     -12.700034     -12.867843     -12.867843      0.16780956   
    213000   643.07074     -12.128411     -12.294657     -12.294657      0.16624684   
    214000   726.61057     -12.680615     -12.868459     -12.868459      0.18784358   
    215000   500.27488     -12.37116      -12.500491     -12.500491      0.12933121   
    216000   762.67701     -12.475982     -12.67315      -12.67315       0.19716748   
    217000   554.06057     -12.56673      -12.709966     -12.709966      0.1432359    
    218000   930.86688     -12.075735     -12.316383     -12.316383      0.24064798   
    219000   650.69344     -12.694732     -12.86295      -12.86295       0.16821746   
    220000   680.22407     -12.113198     -12.28905      -12.28905       0.17585172   
    221000   730.79631     -12.692501     -12.881427     -12.881427      0.18892567   
    222000   530.00868     -12.319954     -12.456972     -12.456972      0.137018     
    223000   823.92999     -12.490754     -12.703756     -12.703756      0.21300262   
    224000   576.65377     -12.537194     -12.686271     -12.686271      0.1490767    
    225000   1052.5304     -12.117642     -12.389743     -12.389743      0.27210046   
    226000   658.42588     -12.686865     -12.857081     -12.857081      0.17021645   
    227000   683.43056     -12.092669     -12.26935      -12.26935       0.17668067   
    228000   738.48677     -12.693118     -12.884032     -12.884032      0.19091381   
    229000   553.52579     -12.285318     -12.428416     -12.428416      0.14309765   
    230000   859.44761     -12.4906       -12.712785     -12.712785      0.22218465   
    231000   600.31758     -12.520965     -12.676159     -12.676159      0.15519428   
    232000   1094.3203     -12.118311     -12.401215     -12.401215      0.28290401   
    233000   677.40024     -12.680988     -12.85611      -12.85611       0.17512171   
    234000   690.3619      -12.06908      -12.247552     -12.247552      0.17847256   
    235000   762.63996     -12.68509      -12.882248     -12.882248      0.1971579    
    236000   561.61711     -12.27003      -12.415219     -12.415219      0.14518942   
    237000   885.41649     -12.465137     -12.694035     -12.694035      0.22889813   
    238000   618.63106     -12.519528     -12.679456     -12.679456      0.15992868   
    239000   1110.8512     -12.057589     -12.344766     -12.344766      0.28717757   
    240000   712.03497     -12.678065     -12.862141     -12.862141      0.18407549   
    241000   703.30936     -12.04852      -12.23034      -12.23034       0.18181974   
    242000   805.00374     -12.665459     -12.873569     -12.873569      0.2081098    
    243000   553.91307     -12.283212     -12.426409     -12.426409      0.14319777   
    244000   871.76621     -12.410645     -12.636014     -12.636014      0.22536925   
    245000   640.41493     -12.535381     -12.700942     -12.700942      0.16556025   
    246000   994.93566     -11.939092     -12.196303     -12.196303      0.25721106   
    247000   766.33027     -12.670708     -12.86882      -12.86882       0.19811192   
    248000   687.44846     -12.040061     -12.21778      -12.21778       0.17771938   
    249000   843.06294     -12.624278     -12.842227     -12.842227      0.21794888   
    250000   564.35832     -12.338807     -12.484706     -12.484706      0.14589808   
    251000   761.73167     -12.356848     -12.553771     -12.553771      0.19692309   
    252000   686.21537     -12.565046     -12.742447     -12.742447      0.1774006    
    253000   603.65112     -11.879647     -12.035703     -12.035703      0.15605606   
    254000   809.78796     -12.643839     -12.853186     -12.853186      0.20934662   
    255000   618.5357      -12.081814     -12.241718     -12.241718      0.15990403   
    256000   829.84889     -12.566996     -12.781528     -12.781528      0.21453277   
    257000   670.16843     -12.418571     -12.591824     -12.591824      0.17325214   
    258000   781.89964     -12.350009     -12.552146     -12.552146      0.20213692   
    259000   741.4854      -12.59032      -12.782009     -12.782009      0.19168902   
    260000   664.31519     -11.975223     -12.146962     -12.146962      0.17173896   
    261000   764.2191      -12.619759     -12.817326     -12.817326      0.19756614   
    262000   727.80791     -12.176024     -12.364177     -12.364177      0.18815311   
    263000   876.77171     -12.505544     -12.732208     -12.732208      0.22666328   
    264000   783.01555     -12.443564     -12.64599      -12.64599       0.20242541   
    265000   1217.1465     -12.143193     -12.45785      -12.45785       0.31465708   
    266000   723.23066     -12.631915     -12.818884     -12.818884      0.1869698    
    267000   806.54199     -11.904289     -12.112796     -12.112796      0.20850747   
    268000   842.64897     -12.617231     -12.835073     -12.835073      0.21784186   
    269000   688.92066     -12.287757     -12.465857     -12.465857      0.17809997   
    270000   1137.593      -11.975407     -12.269498     -12.269498      0.29409086   
    271000   755.64047     -12.667153     -12.862502     -12.862502      0.19534839   
    272000   670.86663     -11.908791     -12.082223     -12.082223      0.17343264   
    273000   917.46415     -12.580332     -12.817515     -12.817515      0.2371831    
    274000   622.21475     -12.362008     -12.522863     -12.522863      0.16085514   
    275000   923.18838     -11.879915     -12.118578     -12.118578      0.23866293   
    276000   845.51951     -12.676482     -12.895066     -12.895066      0.21858395   
    277000   702.52997     -11.98774      -12.169358     -12.169358      0.18161825   
    278000   876.23252     -12.516391     -12.742915     -12.742915      0.22652389   
    279000   772.52008     -12.45171      -12.651422     -12.651422      0.19971211   
    280000   807.27222     -11.846505     -12.055202     -12.055202      0.20869625   
    281000   865.75935     -12.646377     -12.870193     -12.870193      0.22381636   
    282000   796.768       -12.045179     -12.25116      -12.25116       0.20598069   
    283000   893.72236     -12.493302     -12.724347     -12.724347      0.23104536   
    284000   806.86288     -12.486029     -12.694619     -12.694619      0.20859043   
    285000   840.50917     -11.780833     -11.998122     -11.998122      0.21728867   
    286000   854.90874     -12.640292     -12.861303     -12.861303      0.22101125   
    287000   731.98505     -12.101494     -12.290727     -12.290727      0.18923299   
    288000   1175.2324     -12.260087     -12.563909     -12.563909      0.30382142   
    289000   825.29009     -12.595818     -12.809172     -12.809172      0.21335423   
    290000   795.55906     -11.841962     -12.04763      -12.04763       0.20566816   
    291000   985.65635     -12.566728     -12.82154      -12.82154       0.25481217   
    292000   682.93926     -12.310183     -12.486737     -12.486737      0.17655366   
    293000   740.28874     -11.984502     -12.175882     -12.175882      0.19137966   
    294000   924.05222     -12.60237      -12.841257     -12.841257      0.23888625   
    295000   713.74904     -12.042056     -12.226575     -12.226575      0.18451861   
    296000   943.62924     -12.445892     -12.689839     -12.689839      0.2439473    
    297000   845.61334     -12.476516     -12.695124     -12.695124      0.21860821   
    298000   930.11862     -11.790587     -12.031041     -12.031041      0.24045454   
    299000   862.6621      -12.592342     -12.815357     -12.815357      0.22301566   
    300000   907.87736     -12.160491     -12.395196     -12.395196      0.23470472   
    301000   1274.9188     -11.981064     -12.310656     -12.310656      0.32959237   
    302000   833.40317     -12.632968     -12.84842      -12.84842       0.21545163   
    303000   704.94652     -11.834843     -12.017086     -12.017086      0.18224298   
    304000   1020.5249     -12.453722     -12.717548     -12.717548      0.26382639   
    305000   804.62063     -12.474422     -12.682432     -12.682432      0.20801076   
    306000   853.69761     -11.504428     -11.725126     -11.725126      0.22069815   
    307000   973.26542     -12.621449     -12.873058     -12.873058      0.25160886   
    308000   937.68323     -12.090538     -12.332949     -12.332949      0.24241014   
    309000   947.3925      -12.179745     -12.424665     -12.424665      0.24492018   
    310000   861.89559     -12.575268     -12.798086     -12.798086      0.2228175    
    311000   759.68923     -11.679435     -11.87583      -11.87583       0.19639508   
    312000   1071.5895     -12.518587     -12.795615     -12.795615      0.27702762   
    313000   826.9955      -12.371123     -12.584918     -12.584918      0.21379512   
    314000   1399.4143     -11.70772      -12.069497     -12.069497      0.36177698   
    315000   1032.5133     -12.602239     -12.869165     -12.869165      0.26692563   
    316000   713.05431     -12.089339     -12.273678     -12.273678      0.18433901   
    317000   936.31201     -12.214548     -12.456603     -12.456603      0.24205565   
    318000   920.83856     -12.526745     -12.7648       -12.7648        0.23805545   
    319000   982.25151     -11.716582     -11.970514     -11.970514      0.25393194   
    320000   1076.8355     -12.437182     -12.715566     -12.715566      0.27838383   
    321000   875.05691     -12.367479     -12.593699     -12.593699      0.22621996   
    322000   1337.2662     -11.533918     -11.879629     -11.879629      0.34571043   
    323000   983.08134     -12.624039     -12.878186     -12.878186      0.25414647   
    324000   703.16502     -12.128831     -12.310613     -12.310613      0.18178243   
    325000   1027.5444     -12.01528      -12.280921     -12.280921      0.26564108   
    326000   980.17373     -12.554612     -12.808007     -12.808007      0.2533948    
    327000   897.80511     -11.630638     -11.862739     -11.862739      0.23210084   
    328000   1042.8567     -12.451376     -12.720976     -12.720976      0.26959961   
    329000   923.76244     -12.386668     -12.625479     -12.625479      0.23881133   
    330000   1226.9213     -11.682676     -11.99986      -11.99986       0.31718405   
    331000   1079.8471     -12.593546     -12.872708     -12.872708      0.27916239   
    332000   744.98196     -12.147538     -12.340131     -12.340131      0.19259295   
    333000   880.31896     -12.082807     -12.310387     -12.310387      0.22758031   
    334000   1005.9884     -12.538901     -12.798969     -12.798969      0.26006842   
    335000   900.24309     -11.908652     -12.141383     -12.141383      0.2327311    
    336000   1185.4232     -12.352481     -12.658937     -12.658937      0.30645594   
    337000   875.02589     -12.418588     -12.6448       -12.6448        0.22621195   
    338000   991.99459     -11.502719     -11.75917      -11.75917       0.25645073   
    339000   1116.4787     -12.524724     -12.813357     -12.813357      0.28863241   
    340000   805.18291     -12.249888     -12.458044     -12.458044      0.20815612   
    341000   1015.2823     -11.74524      -12.007712     -12.007712      0.26247108   
    342000   1018.8022     -12.594383     -12.857764     -12.857764      0.26338104   
    343000   961.29032     -11.85923      -12.107743     -12.107743      0.24851305   
    344000   1388.4939     -12.228671     -12.587625     -12.587625      0.35895384   
    345000   988.03178     -12.520655     -12.776081     -12.776081      0.25542626   
    346000   854.15761     -11.642573     -11.86339      -11.86339       0.22081707   
    347000   1108.3563     -12.437682     -12.724214     -12.724214      0.28653259   
    348000   997.09508     -12.323172     -12.580941     -12.580941      0.25776931   
    349000   1385.5007     -11.625423     -11.983603     -11.983603      0.35818004   
    350000   1031.0239     -12.549169     -12.815709     -12.815709      0.2665406    
    351000   885.97416     -12.007675     -12.236718     -12.236718      0.2290423    
    352000   1221.6025     -11.850043     -12.165852     -12.165852      0.31580903   
    353000   1086.9034     -12.582836     -12.863822     -12.863822      0.28098659   
    354000   1055.8968     -11.753676     -12.026647     -12.026647      0.27297074   
    355000   1191.1809     -12.389512     -12.697456     -12.697456      0.30794444   
    356000   972.58206     -12.399269     -12.650701     -12.650701      0.2514322    
    357000   1059.4055     -11.428034     -11.701912     -11.701912      0.27387782   
    358000   1181.6097     -12.480832     -12.786302     -12.786302      0.30547008   
    359000   955.14962     -12.253453     -12.500378     -12.500378      0.24692556   
    360000   1568.9998     -11.858005     -12.263624     -12.263624      0.40561828   
    361000   1024.0504     -12.555427     -12.820165     -12.820165      0.26473782   
    362000   960.41916     -11.89929      -12.147578     -12.147578      0.24828784   
    363000   1283.8755     -11.986164     -12.318072     -12.318072      0.33190786   
    364000   1098.0171     -12.500489     -12.784349     -12.784349      0.28385969   
    365000   955.19198     -11.325596     -11.572533     -11.572533      0.24693651   
    366000   1269.417      -12.400868     -12.729038     -12.729038      0.32817005   
    367000   1014.3215     -12.330143     -12.592365     -12.592365      0.26222268   
    368000   1458.7788     -11.478176     -11.8553       -11.8553        0.37712392   
    369000   1139.8158     -12.491558     -12.786224     -12.786224      0.29466551   
    370000   1071.4967     -11.977783     -12.254787     -12.254787      0.27700364   
    371000   1499.6622     -11.994463     -12.382156     -12.382156      0.38769311   
    372000   1039.3955     -12.568346     -12.837051     -12.837051      0.26870482   
    373000   1058.4625     -11.666406     -11.94004      -11.94004       0.27363402   
    374000   1120.2934     -12.411667     -12.701286     -12.701286      0.28961859   
    375000   1083.5609     -12.263035     -12.543158     -12.543158      0.28012249   
    376000   1577.6934     -11.766185     -12.174051     -12.174051      0.40786576   
    377000   1224.8631     -12.516926     -12.833578     -12.833578      0.31665197   
    378000   929.63359     -11.82753      -12.067859     -12.067859      0.24032915   
    379000   1336.8853     -12.312792     -12.658404     -12.658404      0.34561198   
    380000   941.61227     -12.291099     -12.534525     -12.534525      0.24342588   
    381000   1339.1249     -11.310511     -11.656702     -11.656702      0.34619095   
    382000   1180.7098     -12.558497     -12.863734     -12.863734      0.30523745   
    383000   1033.4038     -11.603846     -11.871002     -11.871002      0.26715586   
    384000   1453.1033     -12.261195     -12.636852     -12.636852      0.37565669   
    385000   1056.1668     -12.318138     -12.591179     -12.591179      0.27304054   
    386000   995.78683     -11.483181     -11.740612     -11.740612      0.2574311    
    387000   1097.4478     -12.477875     -12.761587     -12.761587      0.28371253   
    388000   1131.9432     -11.761591     -12.054221     -12.054221      0.29263029   
    389000   1329.6462     -12.051634     -12.395375     -12.395375      0.34374051   
    390000   1138.116      -12.41267      -12.706896     -12.706896      0.29422609   
    391000   1077.2593     -11.201438     -11.479932     -11.479932      0.27849339   
    392000   1196.2887     -12.563778     -12.873043     -12.873043      0.30926491   
    393000   840.18151     -11.869506     -12.08671      -12.08671       0.21720397   
    394000   1150.798      -12.156233     -12.453737     -12.453737      0.29750462   
    395000   1089.8719     -12.405866     -12.68762      -12.68762       0.281754     
    396000   1114.9005     -11.441368     -11.729593     -11.729593      0.2882244    
    397000   1250.1134     -12.502979     -12.826158     -12.826158      0.32317968   
    398000   1015.7524     -12.091581     -12.354174     -12.354174      0.2625926    
    399000   1219.9887     -12.009123     -12.324515     -12.324515      0.31539184   
    400000   1129.7888     -12.4971       -12.789173     -12.789173      0.29207334   
    401000   971.44401     -11.442718     -11.693856     -11.693856      0.25113799   
    402000   1293.729      -12.429378     -12.763833     -12.763833      0.3344552    
    403000   1190.2525     -12.137026     -12.444731     -12.444731      0.30770442   
    404000   1706.4738     -11.716292     -12.15745      -12.15745       0.44115809   
    405000   1168.8033     -12.554609     -12.856768     -12.856768      0.30215938   
    406000   1267.9296     -11.395968     -11.723754     -11.723754      0.32778554   
    407000   1266.6001     -12.427971     -12.755412     -12.755412      0.32744182   
    408000   1129.5114     -12.153617     -12.445619     -12.445619      0.29200162   
    409000   1617.7896     -11.489393     -11.907625     -11.907625      0.41823143   
    410000   1273.6521     -12.437846     -12.767111     -12.767111      0.32926492   
    411000   1231.1044     -11.666164     -11.98443      -11.98443       0.31826546   
    412000   1450.3915     -12.206709     -12.581665     -12.581665      0.37495564   
    413000   1025.3652     -12.242968     -12.508045     -12.508045      0.26507771   
    414000   1470.0924     -11.211277     -11.591325     -11.591325      0.38004871   
    415000   1210.1842     -12.536609     -12.849466     -12.849466      0.31285716   
    416000   932.69592     -11.470175     -11.711296     -11.711296      0.24112082   
    417000   1388.7255     -12.179828     -12.538842     -12.538842      0.35901372   
    418000   1143.0157     -12.280904     -12.576397     -12.576397      0.29549274   
    419000   1356.2058     -11.400875     -11.751482     -11.751482      0.3506067    
    420000   1190.6967     -12.47201      -12.779829     -12.779829      0.30781927   
    421000   856.48103     -11.735155     -11.956572     -11.956572      0.22141773   
    422000   1289.2534     -12.034279     -12.367577     -12.367577      0.33329817   
    423000   1174.4454     -12.360445     -12.664063     -12.664063      0.30361796   
    424000   1146.6435     -11.126756     -11.423187     -11.423187      0.29643061   
    425000   1355.1864     -12.530199     -12.880542     -12.880542      0.35034318   
    426000   940.25634     -11.816206     -12.059282     -12.059282      0.24307534   
    427000   1398.0829     -12.153071     -12.514504     -12.514504      0.36143281   
    428000   1146.6881     -12.389258     -12.6857       -12.6857        0.29644214   
    429000   1388.7826     -11.307691     -11.66672      -11.66672       0.35902848   
    430000   1294.1244     -12.496454     -12.831012     -12.831012      0.33455741   
    431000   1166.8334     -11.967913     -12.269563     -12.269563      0.30165011   
    432000   1393.7575     -12.030803     -12.391117     -12.391117      0.3603146    
    433000   1225.5074     -12.430028     -12.746847     -12.746847      0.31681852   
    434000   1065.9662     -11.194485     -11.470059     -11.470059      0.2755739    
    435000   1400.8294     -12.471854     -12.833997     -12.833997      0.36214283   
    436000   1116.6586     -11.921332     -12.210011     -12.210011      0.2886789    
    437000   1528.4673     -12.047954     -12.443094     -12.443094      0.39513981   
    438000   1226.2035     -12.414622     -12.73162      -12.73162       0.31699849   
    439000   1102.1476     -11.235566     -11.520493     -11.520493      0.28492752   
    440000   1318.1249     -12.482651     -12.823413     -12.823413      0.34076203   
    441000   1264.0051     -11.930834     -12.257605     -12.257605      0.32677097   
    442000   1632.0827     -11.891108     -12.313035     -12.313035      0.42192649   
    443000   1356.7898     -12.416263     -12.767021     -12.767021      0.35075768   
    444000   1275.6307     -11.307358     -11.637134     -11.637134      0.32977643   
    445000   1442.0534     -12.422206     -12.795006     -12.795006      0.37280006   
    446000   1275.5289     -11.977427     -12.307177     -12.307177      0.3297501    
    447000   1742.698      -11.715641     -12.166164     -12.166164      0.45052278   
    448000   1239.5811     -12.497717     -12.818174     -12.818174      0.32045687   
    449000   1426.6171     -11.321249     -11.690058     -11.690058      0.36880947   
    450000   1413.962      -12.488566     -12.854104     -12.854104      0.36553788   
    451000   1166.5977     -12.152949     -12.454538     -12.454538      0.30158919   
    452000   1600.8452     -11.329294     -11.743145     -11.743145      0.41385096   
    453000   1320.0843     -12.348954     -12.690223     -12.690223      0.34126858   
    454000   1129.2453     -11.669746     -11.961678     -11.961678      0.29193283   
    455000   1636.4574     -12.073786     -12.496843     -12.496843      0.42305744   
    456000   1182.3741     -12.209704     -12.515371     -12.515371      0.3056677    
    457000   1189.0878     -11.103918     -11.411321     -11.411321      0.30740331   
    458000   1355.9774     -12.52563      -12.876177     -12.876177      0.35054766   
    459000   1016.8725     -11.631164     -11.894046     -11.894046      0.26288218   
    460000   1648.4028     -11.982681     -12.408827     -12.408827      0.42614558   
    461000   1207.4681     -12.345745     -12.6579       -12.6579        0.31215501   
    462000   2513.1546     -10.62901      -11.278712     -11.278712      0.64970146   
    463000   1444.8095     -12.485211     -12.858723     -12.858723      0.37351257   
    464000   908.41935     -11.377927     -11.612772     -11.612772      0.23484483   
    465000   1413.2723     -12.508935     -12.874294     -12.874294      0.36535957   
    466000   1229.9235     -10.923641     -11.241602     -11.241602      0.31796019   
    467000   1202.6555     -12.130094     -12.441004     -12.441004      0.31091085   
    468000   1891.9783     -12.007012     -12.496127     -12.496127      0.48911477   
    469000   1302.8863     -12.142782     -12.479604     -12.479604      0.33682256   
    470000   1632.248      -12.320164     -12.742134     -12.742134      0.42196922   
    471000   1350.3363     -11.5594       -11.908489     -11.908489      0.34908933   
    472000   1486.8293     -12.443054     -12.827429     -12.827429      0.38437554   
    473000   1007.3347     -11.73764      -11.998056     -11.998056      0.26041645   
    474000   1608.3187     -11.903759     -12.319542     -12.319542      0.41578301   
    475000   1171.9149     -12.168868     -12.471832     -12.471832      0.30296377   
    476000   1459.3132     -12.252081     -12.629343     -12.629343      0.37726206   
    477000   1309.6837     -11.747708     -12.086288     -12.086288      0.33857982   
    478000   1299.4622     -12.332452     -12.66839      -12.66839       0.33593733   
    479000   1481.1886     -11.602478     -11.985395     -11.985395      0.38291731   
    480000   1325.3456     -12.407532     -12.750161     -12.750161      0.34262873   
    481000   1122.3816     -11.435783     -11.725942     -11.725942      0.29015842   
    482000   1407.1849     -12.144689     -12.508475     -12.508475      0.36378584   
    483000   2098.282      -11.401182     -11.94363      -11.94363       0.54244846   
    484000   1594.8549     -12.119633     -12.531935     -12.531935      0.41230234   
    485000   1701.9754     -12.325729     -12.765724     -12.765724      0.43999517   
    486000   1648.8906     -11.864144     -12.290416     -12.290416      0.42627168   
    487000   1640.2363     -12.434632     -12.858666     -12.858666      0.42403436   
    488000   1189.1276     -11.159412     -11.466825     -11.466825      0.30741361   
    489000   1257.7551     -12.306529     -12.631684     -12.631684      0.32515521   
    490000   1725.5893     -11.407226     -11.853326     -11.853326      0.44609985   
    491000   1317.5683     -12.171418     -12.512036     -12.512036      0.34061814   
    492000   1989.2676     -11.923922     -12.438188     -12.438188      0.51426602   
    493000   997.30996     -11.888905     -12.14673      -12.14673       0.25782486   
    494000   1728.3511     -12.344556     -12.79137      -12.79137       0.44681382   
    495000   1967.0244     -11.564174     -12.07269      -12.07269       0.50851571   
    496000   1273.8194     -12.363899     -12.693207     -12.693207      0.32930815   
    497000   1343.0216     -10.847663     -11.194861     -11.194861      0.34719835   
    498000   1421.2846     -12.004727     -12.372158     -12.372158      0.3674309    
    499000   2027.6839     -11.72304      -12.247238     -12.247238      0.52419743   
    500000   1499.1657     -12.122163     -12.509728     -12.509728      0.38756476   
    501000   1736.2194     -12.354155     -12.803003     -12.803003      0.44884795   
    502000   1677.8736     -11.609222     -12.042987     -12.042987      0.43376438   
    503000   1540.7011     -12.48149      -12.879793     -12.879793      0.39830249   
    504000   1095.1537     -10.706136     -10.989255     -10.989255      0.28311946   
    505000   1307.6852     -12.162578     -12.500641     -12.500641      0.33806316   
    506000   1958.9616     -11.430312     -11.936743     -11.936743      0.50643131   
    507000   1715.255      -12.056197     -12.499625     -12.499625      0.44342821   
    508000   1537.7244     -12.173083     -12.570616     -12.570616      0.39753295   
    509000   1180.7796     -11.663688     -11.968943     -11.968943      0.30525549   
    510000   1689.2715     -12.399064     -12.835775     -12.835775      0.43671097   
    511000   1007.2798     -11.115721     -11.376123     -11.376123      0.26040228   
    512000   1366.9878     -12.1525       -12.505894     -12.505894      0.35339408   
    513000   2063.8602     -10.818682     -11.352232     -11.352232      0.53354975   
    514000   1603.3892     -11.920624     -12.335133     -12.335133      0.41450864   
    515000   1627.2278     -12.23545      -12.656122     -12.656122      0.4206714    
    516000   1206.7577     -11.608368     -11.920339     -11.920339      0.31197134   
    517000   1548.4172     -12.384613     -12.784911     -12.784911      0.40029725   
    518000   1521.2541     -11.784801     -12.178076     -12.178076      0.39327505   
    519000   1371.8063     -12.195388     -12.550027     -12.550027      0.35463976   
    520000   1799.8341     -11.024475     -11.489769     -11.489769      0.46529362   
    521000   1463.5311     -12.044578     -12.422931     -12.422931      0.37835248   
    522000   1750.5629     -12.202667     -12.655223     -12.655223      0.45255602   
    523000   1394.854      -11.350166     -11.710764     -11.710764      0.36059805   
    524000   1827.5687     -12.295842     -12.768305     -12.768305      0.4724636    
    525000   1297.9697     -11.291905     -11.627456     -11.627456      0.33555151   
    526000   1391.1594     -12.275947     -12.63559      -12.63559       0.35964293   
    527000   1771.0006     -11.204705     -11.662544     -11.662544      0.4578396    
    528000   1696.3426     -11.990641     -12.42918      -12.42918       0.43853898   
    529000   1657.4262     -12.208597     -12.637075     -12.637075      0.42847831   
    530000   1308.9539     -11.791723     -12.130114     -12.130114      0.33839113   
    531000   1511.9698     -12.348372     -12.739247     -12.739247      0.39087486   
    532000   1355.8595     -11.678599     -12.029116     -12.029116      0.35051718   
    533000   1368.4262     -12.195905     -12.549671     -12.549671      0.35376593   
    534000   1895.1571     -10.971779     -11.461715     -11.461715      0.48993657   
    535000   1491.4264     -12.034011     -12.419575     -12.419575      0.38556398   
    536000   1753.733      -12.198289     -12.651665     -12.651665      0.45337557   
    537000   1540.3474     -11.394405     -11.792616     -11.792616      0.39821105   
    538000   1829.2717     -12.313912     -12.786816     -12.786816      0.47290386   
    539000   1137.9172     -11.054107     -11.348282     -11.348282      0.29417468   
    540000   1431.7554     -12.134543     -12.504681     -12.504681      0.37013783   
    541000   2187.4615     -10.990975     -11.556478     -11.556478      0.56550317   
    542000   1725.889      -11.917278     -12.363455     -12.363455      0.44617731   
    543000   1814.5894     -12.209538     -12.678646     -12.678646      0.46910817   
    544000   1612.2998     -11.300246     -11.717059     -11.717059      0.41681221   
    545000   1845.7676     -12.385634     -12.862802     -12.862802      0.47716838   
    546000   1479.4044     -11.428889     -11.811345     -11.811345      0.38245605   
    547000   1427.5741     -12.206621     -12.575678     -12.575678      0.36905687   
    548000   1852.9176     -11.161585     -11.640602     -11.640602      0.4790168    
    549000   1805.1797     -11.968785     -12.43546      -12.43546       0.46667557   
    550000   1614.808      -12.176255     -12.593716     -12.593716      0.41746064   
    551000   1233.5041     -11.77005      -12.088936     -12.088936      0.31888584   
    552000   1584.6188     -12.362179     -12.771836     -12.771836      0.40965612   
    553000   1940.9279     -11.64004      -12.141809     -12.141809      0.50176925   
    554000   1465.0032     -12.304147     -12.68288      -12.68288       0.37873305   
    555000   1376.5225     -11.133752     -11.489611     -11.489611      0.35585899   
    556000   1786.6633     -12.148969     -12.610858     -12.610858      0.46188871   
    557000   2211.3518     -11.847618     -12.419298     -12.419298      0.57167931   
    558000   1590.5545     -11.919756     -12.330947     -12.330947      0.41119062   
    559000   1896.6434     -12.317861     -12.808181     -12.808181      0.4903208    
    560000   1830.7538     -11.653621     -12.126908     -12.126908      0.47328701   
    561000   1597.2735     -12.410566     -12.823493     -12.823493      0.41292761   
    562000   1364.8791     -10.978051     -11.3309       -11.3309        0.35284893   
    563000   1783.6997     -12.111491     -12.572613     -12.572613      0.46112256   
    564000   2287.4387     -11.67291      -12.26426      -12.26426       0.59134931   
    565000   1641.4927     -11.92643      -12.35079      -12.35079       0.42435917   
    566000   1905.5679     -12.239826     -12.732454     -12.732454      0.49262796   
    567000   1941.7497     -11.598046     -12.100027     -12.100027      0.50198171   
    568000   1840.8312     -12.398342     -12.874235     -12.874235      0.47589222   
    569000   1267.5251     -11.072087     -11.399768     -11.399768      0.32768095   
    570000   1768.6902     -12.048577     -12.505819     -12.505819      0.4572423    
    571000   2327.4681     -11.417051     -12.018749     -12.018749      0.60169774   
    572000   1501.8894     -11.972989     -12.361258     -12.361258      0.3882689    
    573000   1784.5179     -12.163422     -12.624756     -12.624756      0.46133409   
    574000   1738.1577     -11.431454     -11.880803     -11.880803      0.44934904   
    575000   1891.682      -12.348378     -12.837416     -12.837416      0.48903819   
    576000   1337.006      -11.363017     -11.70866      -11.70866       0.34564317   
    577000   1634.8701     -12.033761     -12.456408     -12.456408      0.42264709   
    578000   2229.5165     -11.211605     -11.78798      -11.78798       0.57637524   
    579000   1735.7136     -12.111549     -12.560266     -12.560266      0.44871719   
    580000   1686.5354     -12.068836     -12.504839     -12.504839      0.43600362   
    581000   1587.4768     -11.480749     -11.891144     -11.891144      0.41039496   
    582000   1717.3569     -12.335873     -12.779845     -12.779845      0.44397161   
    583000   1590.3345     -11.523811     -11.934944     -11.934944      0.41113373   
    584000   1518.2901     -12.087921     -12.480429     -12.480429      0.39250879   
    585000   2094.7214     -11.110879     -11.652407     -11.652407      0.54152797   
    586000   1931.9425     -11.848444     -12.34789      -12.34789       0.49944634   
    587000   1998.2821     -12.157457     -12.674054     -12.674054      0.51659646   
    588000   1548.1981     -11.232953     -11.633194     -11.633194      0.40024063   
    589000   2100.5492     -12.255638     -12.798673     -12.798673      0.54303458   
    590000   1375.0055     -11.165235     -11.520702     -11.520702      0.35546681   
    591000   1586.9126     -12.120367     -12.530616     -12.530616      0.41024911   
    592000   2232.1697     -10.737029     -11.31409      -11.31409       0.57706116   
    593000   1726.147      -11.839788     -12.286032     -12.286032      0.44624403   
    594000   1927.1209     -12.073078     -12.571278     -12.571278      0.49819987   
    595000   1389.4647     -11.278793     -11.637998     -11.637998      0.35920483   
    596000   1871.8761     -12.239179     -12.723097     -12.723097      0.48391796   
    597000   1321.5191     -11.273532     -11.615172     -11.615172      0.34163949   
    598000   1560.5922     -12.055094     -12.458539     -12.458539      0.40344476   
    599000   2092.2883     -10.96455      -11.505449     -11.505449      0.54089897   
    600000   1944.7421     -12.047017     -12.549772     -12.549772      0.5027553    
    601000   1675.0204     -12.105329     -12.538356     -12.538356      0.43302675   
    602000   1455.9376     -11.492798     -11.869187     -11.869187      0.3763894    
    603000   2002.758      -12.333139     -12.850893     -12.850893      0.51775358   
    604000   1625.883      -11.273843     -11.694166     -11.694166      0.42032375   
    605000   1638.3194     -12.182595     -12.606134     -12.606134      0.4235388    
    606000   2142.0768     -10.662902     -11.216673     -11.216673      0.55377031   
    607000   1789.6479     -11.805761     -12.268421     -12.268421      0.46266031   
    608000   2087.541      -11.929687     -12.469358     -12.469358      0.53967172   
    609000   1052.907      -11.465338     -11.737536     -11.737536      0.27219782   
    610000   1724.0906     -12.227417     -12.67313      -12.67313       0.4457124    
    611000   1437.5594     -11.374885     -11.746523     -11.746523      0.37163828   
    612000   1544.6889     -12.13142      -12.530753     -12.530753      0.39933342   
    613000   1826.3819     -10.870628     -11.342785     -11.342785      0.47215678   
    614000   1990.5194     -11.852036     -12.366626     -12.366626      0.51458965   
    615000   2208.8938     -12.059269     -12.630313     -12.630313      0.57104386   
    616000   1098.5156     -11.551036     -11.835025     -11.835025      0.28398857   
    617000   2039.0798     -12.138466     -12.665609     -12.665609      0.52714351   
    618000   1349.1087     -11.218712     -11.567484     -11.567484      0.34877197   
    619000   1592.6846     -12.098191     -12.509933     -12.509933      0.41174128   
    620000   2358.9386     -10.566808     -11.176641     -11.176641      0.60983348   
    621000   1770.6104     -11.950732     -12.408471     -12.408471      0.4577387    
    622000   1984.4651     -12.079609     -12.592633     -12.592633      0.5130245    
    623000   1487.1936     -11.498398     -11.882867     -11.882867      0.38446972   
    624000   1974.2244     -12.324        -12.834377     -12.834377      0.51037706   
    625000   1809.4904     -11.317163     -11.784953     -11.784953      0.46778998   
    626000   1700.7478     -12.157469     -12.597147     -12.597147      0.43967782   
    627000   2191.4734     -10.550347     -11.116887     -11.116887      0.56654034   
    628000   1831.4537     -11.809525     -12.282993     -12.282993      0.47346795   
    629000   1999.0869     -12.056962     -12.573767     -12.573767      0.51680451   
    630000   1371.1487     -11.481278     -11.835747     -11.835747      0.35446976   
    631000   1724.0636     -12.235042     -12.680747     -12.680747      0.44570542   
    632000   1924.6127     -11.445345     -11.942896     -11.942896      0.49755144   
    633000   1670.4751     -12.14259      -12.574442     -12.574442      0.4318517    
    634000   2299.0265     -10.647288     -11.241633     -11.241633      0.594345     
    635000   1883.8956     -11.759945     -12.24697      -12.24697       0.48702524   
    636000   2046.2271     -11.968766     -12.497757     -12.497757      0.52899122   
    637000   1350.5614     -11.300134     -11.649281     -11.649281      0.34914752   
    638000   1799.5377     -12.198178     -12.663395     -12.663395      0.46521702   
    639000   1802.6719     -11.414965     -11.880992     -11.880992      0.46602725   
    640000   1669.5841     -12.081549     -12.51317      -12.51317       0.43162136   
    641000   2425.4429     -10.730703     -11.357729     -11.357729      0.62702621   
    642000   1925.0101     -11.749566     -12.24722      -12.24722       0.49765417   
    643000   2068.4815     -12.010361     -12.545105     -12.545105      0.53474444   
    644000   1792.0992     -11.238199     -11.701493     -11.701493      0.463294     
    645000   1977.1872     -12.182745     -12.693888     -12.693888      0.51114301   
    646000   1746.2332     -11.373124     -11.82456      -11.82456       0.45143672   
    647000   1689.4023     -12.020102     -12.456847     -12.456847      0.43674477   
    648000   2512.4323     -10.791026     -11.44054      -11.44054       0.64951474   
    649000   1882.4191     -11.766917     -12.25356      -12.25356       0.48664352   
    650000   1981.0916     -12.063289     -12.575442     -12.575442      0.51215238   
    651000   1771.6993     -11.150949     -11.608969     -11.608969      0.45802021   
    652000   1911.299      -12.347942     -12.842052     -12.842052      0.49410956   
    653000   1641.7244     -10.651729     -11.076148     -11.076148      0.42441906   
    654000   1841.4409     -11.818162     -12.294212     -12.294212      0.47604983   
    655000   2553.4898     -11.431617     -12.091746     -12.091746      0.66012892   
    656000   1963.6078     -11.748771     -12.256403     -12.256403      0.50763245   
    657000   2313.637      -12.045613     -12.643735     -12.643735      0.59812212   
    658000   1870.1601     -11.220699     -11.704173     -11.704173      0.48347433   
    659000   1878.3664     -12.347804     -12.8334       -12.8334        0.48559583   
    660000   1748.9169     -10.394567     -10.846698     -10.846698      0.45213052   
    661000   2003.5366     -11.841985     -12.35994      -12.35994       0.51795486   
    662000   2721.1289     -11.611935     -12.315402     -12.315402      0.70346702   
    663000   1779.1912     -11.874755     -12.334712     -12.334712      0.45995702   
    664000   1810.3697     -12.152035     -12.620052     -12.620052      0.46801729   
    665000   1781.7604     -11.364466     -11.825087     -11.825087      0.46062121   
    666000   1746.272      -12.238729     -12.690176     -12.690176      0.45144674   
    667000   1852.0503     -10.76699      -11.245782     -11.245782      0.47879258   
    668000   1933.5775     -11.668623     -12.168492     -12.168492      0.49986902   
    669000   2336.6623     -11.817127     -12.421201     -12.421201      0.60407462   
    670000   1372.5587     -11.497669     -11.852504     -11.852504      0.35483427   
    671000   1832.2691     -12.22925      -12.702928     -12.702928      0.47367875   
    672000   1992.7431     -11.261946     -11.77711      -11.77711       0.51516453   
    673000   1823.0995     -12.047443     -12.518751     -12.518751      0.47130821   
    674000   2574.3026     -10.651318     -11.316828     -11.316828      0.66550947   
    675000   1863.6455     -11.849749     -12.331539     -12.331539      0.48179016   
    676000   1867.2066     -11.991555     -12.474265     -12.474265      0.4827108    
    677000   2117.0859     -11.150967     -11.698277     -11.698277      0.54730966   
    678000   2324.3449     -12.286598     -12.887488     -12.887488      0.60089031   
    679000   1415.3298     -10.624596     -10.990487     -10.990487      0.36589147   
    680000   1915.4614     -11.853371     -12.348557     -12.348557      0.49518563   
    681000   2679.8756     -10.947126     -11.639928     -11.639928      0.69280221   
    682000   2295.9071     -11.817056     -12.410594     -12.410594      0.59353856   
    683000   2315.3938     -12.129452     -12.728028     -12.728028      0.59857628   
    684000   2417.4399     -11.265012     -11.889969     -11.889969      0.62495726   
    685000   2171.7556     -12.26536      -12.826803     -12.826803      0.56144288   
    686000   1779.7323     -10.816716     -11.276813     -11.276813      0.4600969    
    687000   1891.2933     -11.776633     -12.265571     -12.265571      0.48893768   
    688000   2570.2424     -11.494728     -12.159188     -12.159188      0.66445982   
    689000   2094.8113     -11.683395     -12.224946     -12.224946      0.54155123   
    690000   2442.4735     -12.181244     -12.812673     -12.812673      0.63142895   
    691000   1906.0121     -11.221626     -11.714368     -11.714368      0.4927428    
    692000   1830.8973     -12.146379     -12.619703     -12.619703      0.47332411   
    693000   2503.431      -10.20948      -10.856668     -10.856668      0.64718771   
    694000   2156.6175     -11.935667     -12.493197     -12.493197      0.55752937   
    695000   2484.343      -11.921576     -12.563829     -12.563829      0.64225306   
    696000   1247.8567     -11.405786     -11.728382     -11.728382      0.32259627   
    697000   2249.0377     -12.028313     -12.609735     -12.609735      0.58142187   
    698000   1566.5551     -10.990416     -11.395402     -11.395402      0.40498628   
    699000   1781.3263     -12.020041     -12.48055      -12.48055       0.460509     
    700000   2251.4032     -10.652449     -11.234482     -11.234482      0.58203341   
    701000   2182.3542     -11.664135     -12.228318     -12.228318      0.56418285   
    702000   2375.5549     -11.840816     -12.454945     -12.454945      0.61412914   
    703000   1814.7367     -11.164651     -11.633797     -11.633797      0.46914625   
    704000   2102.2041     -12.146731     -12.690193     -12.690193      0.54346242   
    705000   1774.8111     -10.807576     -11.266401     -11.266401      0.45882468   
    706000   1995.7742     -11.878833     -12.394781     -12.394781      0.51594812   
    707000   2782.131      -11.171907     -11.891144     -11.891144      0.71923731   
    708000   1788.8173     -11.75004      -12.212485     -12.212485      0.46244556   
    709000   2139.8164     -11.847569     -12.400755     -12.400755      0.55318596   
    710000   2230.5329     -11.359985     -11.936623     -11.936623      0.57663801   
    711000   1946.4042     -12.287323     -12.790508     -12.790508      0.50318499   
    712000   1678.4869     -10.268227     -10.702149     -10.702149      0.43392292   
    713000   2190.2433     -11.743479     -12.309701     -12.309701      0.56622234   
    714000   2731.1037     -11.409881     -12.115927     -12.115927      0.70604572   
    715000   1802.1979     -11.687025     -12.15293      -12.15293       0.46590472   
    716000   1944.8425     -12.17281      -12.675591     -12.675591      0.50278124   
    717000   2146.6145     -11.162414     -11.717357     -11.717357      0.5549434    
    718000   1979.5004     -11.868425     -12.380166     -12.380166      0.51174103   
    719000   2896.967      -11.277395     -12.02632      -12.02632       0.74892474   
    720000   1944.1404     -11.83766      -12.34026      -12.34026       0.50259973   
    721000   2041.1561     -12.121838     -12.649519     -12.649519      0.52768026   
    722000   1899.5822     -11.158127     -11.649208     -11.649208      0.49108054   
    723000   1892.3729     -11.979686     -12.468903     -12.468903      0.4892168    
    724000   2791.043      -10.665163     -11.386704     -11.386704      0.72154125   
    725000   2058.2323     -11.620486     -12.152581     -12.152581      0.53209482   
    726000   2526.4887     -12.013334     -12.666483     -12.666483      0.65314859   
    727000   1658.7728     -11.10466      -11.533486     -11.533486      0.42882643   
    728000   1821.3465     -11.988517     -12.459372     -12.459372      0.47085502   
    729000   2521.2431     -10.815157     -11.46695      -11.46695       0.65179251   
    730000   2346.2594     -11.692297     -12.298853     -12.298853      0.60655566   
    731000   2490.5551     -12.144671     -12.78853      -12.78853       0.64385901   
    732000   2037.1948     -11.069917     -11.596573     -11.596573      0.5266562    
    733000   2024.286      -11.874234     -12.397553     -12.397553      0.52331899   
    734000   2784.5528     -10.849679     -11.569543     -11.569543      0.71986341   
    735000   2371.2296     -11.69583      -12.308841     -12.308841      0.61301096   
    736000   2021.1052     -12.160154     -12.682651     -12.682651      0.52249671   
    737000   2298.2968     -11.119314     -11.713471     -11.713471      0.59415636   
    738000   2053.5107     -11.834755     -12.365629     -12.365629      0.53087418   
    739000   3009.4874     -11.291281     -12.069295     -12.069295      0.77801355   
    740000   2093.044      -11.721245     -12.26234      -12.26234       0.54109435   
    741000   2222.3268     -12.053381     -12.627897     -12.627897      0.57451657   
    742000   1921.6142     -11.023213     -11.519989     -11.519989      0.49677627   
    743000   2093.9977     -11.727857     -12.269198     -12.269198      0.54134088   
    744000   2710.41       -11.763181     -12.463877     -12.463877      0.70069599   
    745000   1304.3362     -11.271908     -11.609105     -11.609105      0.33719736   
    746000   2489.3617     -12.22653      -12.870081     -12.870081      0.6435505    
    747000   1932.736      -10.749537     -11.249188     -11.249188      0.49965146   
    748000   2156.9598     -11.663526     -12.221144     -12.221144      0.55761786   
    749000   2241.2805     -11.977104     -12.556521     -12.556521      0.57941649   
    750000   2891.123      -10.998683     -11.746097     -11.746097      0.74741395   
    751000   1998.7828     -12.185757     -12.702483     -12.702483      0.51672591   
    752000   2551.4484     -10.595834     -11.255435     -11.255435      0.65960118   
    753000   2196.3058     -11.585911     -12.153701     -12.153701      0.56778961   
    754000   2483.5007     -11.951066     -12.593101     -12.593101      0.64203532   
    755000   1744.1483     -11.027626     -11.478524     -11.478524      0.45089773   
    756000   1912.4368     -11.893177     -12.38758      -12.38758       0.49440372   
    757000   2983.0724     -11.127096     -11.89828      -11.89828       0.77118475   
    758000   2166.9812     -11.446335     -12.006544     -12.006544      0.56020861   
    759000   2550.9414     -12.203179     -12.862649     -12.862649      0.65947011   
    760000   1947.3302     -10.434661     -10.938085     -10.938085      0.50342436   
    761000   2228.4885     -11.509351     -12.08546      -12.08546       0.5761095    
    762000   2460.1123     -11.847347     -12.483336     -12.483336      0.63598894   
    763000   2457.0421     -10.949851     -11.585046     -11.585046      0.63519522   
    764000   1948.0415     -11.981631     -12.485239     -12.485239      0.50360826   
    765000   2652.6826     -10.768757     -11.454529     -11.454529      0.68577229   
    766000   2385.7614     -11.599098     -12.215866     -12.215866      0.61676773   
    767000   2481.0641     -12.201214     -12.842619     -12.842619      0.64140542   
    768000   1722.069      -10.425226     -10.870416     -10.870416      0.44518978   
    769000   2208.9745     -11.634466     -12.205531     -12.205531      0.57106474   
    770000   2630.2021     -11.746821     -12.426782     -12.426782      0.67996061   
    771000   1733.6967     -11.055177     -11.503373     -11.503373      0.44819578   
    772000   2099.8814     -12.216856     -12.759718     -12.759718      0.54286194   
    773000   2606.5096     -10.381602     -11.055438     -11.055438      0.67383562   
    774000   2457.7773     -11.513436     -12.148821     -12.148821      0.63538531   
    775000   2540.0298     -12.152975     -12.809624     -12.809624      0.65664925   
    776000   1997.6913     -10.902685     -11.419129     -11.419129      0.51644375   
    777000   2220.4468     -11.708622     -12.282653     -12.282653      0.57403056   
    778000   2906.9305     -11.371318     -12.122818     -12.122818      0.75150052   
    779000   1499.0467     -11.18126      -11.568794     -11.568794      0.38753399   
    780000   2247.3024     -12.220579     -12.801552     -12.801552      0.58097327   
    781000   2622.9109     -10.298001     -10.976077     -10.976077      0.67807568   
    782000   2524.286      -11.556012     -12.208592     -12.208592      0.65257914   
    783000   2374.1499     -12.16308      -12.776846     -12.776846      0.61376592   
    784000   2052.154      -10.792952     -11.323476     -11.323476      0.53052344   
    785000   2334.6556     -11.664087     -12.267643     -12.267643      0.60355584   
    786000   2826.1626     -11.711151     -12.441771     -12.441771      0.73062037   
    787000   1995.7421     -10.724699     -11.240639     -11.240639      0.51593984   
    788000   2102.272      -12.110961     -12.65444      -12.65444       0.54347996   
    789000   3140.7438     -10.818968     -11.630914     -11.630914      0.81194599   
    790000   2386.779      -11.623645     -12.240676     -12.240676      0.6170308    
    791000   2247.0104     -12.1157       -12.696598     -12.696598      0.58089777   
    792000   2284.1936     -10.178854     -10.769364     -10.769364      0.59051039   
    793000   2551.4047     -11.631632     -12.291222     -12.291222      0.65958987   
    794000   2682.1395     -12.0707       -12.764087     -12.764087      0.69338747   
    795000   2453.2982     -10.898316     -11.532543     -11.532543      0.63422737   
    796000   2306.5284     -11.682021     -12.278305     -12.278305      0.59628439   
    797000   2926.1621     -11.635743     -12.392215     -12.392215      0.75647228   
    798000   2084.6359     -10.703809     -11.24273      -11.24273       0.53892067   
    799000   2124.3744     -12.083348     -12.632542     -12.632542      0.54919389   
    800000   3184.6971     -10.892681     -11.71599      -11.71599       0.82330883   
    801000   2174.2345     -11.552263     -12.114346     -12.114346      0.56208374   
    802000   2322.8168     -12.153589     -12.754084     -12.754084      0.60049528   
    803000   2685.7458     -10.212771     -10.90709      -10.90709       0.69431979   
    804000   2598.7129     -11.532464     -12.204284     -12.204284      0.67182001   
    805000   2312.8859     -12.146386     -12.744313     -12.744313      0.59792794   
    806000   2002.732      -10.435454     -10.953201     -10.953201      0.51774685   
    807000   2491.9201     -11.57174      -12.215952     -12.215952      0.64421191   
    808000   2771.4322     -11.94837      -12.664841     -12.664841      0.71647146   
    809000   2489.0108     -10.819858     -11.463317     -11.463317      0.64345979   
    810000   2337.8877     -11.656789     -12.261181     -12.261181      0.6043914    
    811000   2872.8962     -11.695725     -12.438427     -12.438427      0.74270196   
    812000   2210.3831     -10.709362     -11.28079      -11.28079       0.57142889   
    813000   2151.4347     -11.859249     -12.415439     -12.415439      0.55618952   
    814000   3023.7368     -11.134218     -11.915915     -11.915915      0.78169732   
    815000   1654.4078     -11.08904      -11.516738     -11.516738      0.42769798   
    816000   2245.3341     -12.189658     -12.770122     -12.770122      0.58046441   
    817000   2937.7886     -10.638935     -11.398413     -11.398413      0.75947797   
    818000   2437.6995     -11.496611     -12.126806     -12.126806      0.63019477   
    819000   2501.4017     -12.22274      -12.869403     -12.869403      0.64666308   
    820000   2584.193      -10.301945     -10.970012     -10.970012      0.66806633   
    821000   2524.3238     -11.446557     -12.099146     -12.099146      0.65258891   
    822000   2646.8947     -12.162686     -12.846962     -12.846962      0.68427599   
    823000   2226.865      -10.224392     -10.800082     -10.800082      0.57568978   
    824000   2462.4206     -11.40414      -12.040725     -12.040725      0.63658569   
    825000   2847.1281     -12.044722     -12.780762     -12.780762      0.73604038   
    826000   1935.8174     -10.43289      -10.933338     -10.933338      0.50044807   
    827000   2357.4973     -11.436189     -12.04565      -12.04565       0.60946088   
    828000   2774.3453     -11.877106     -12.59433      -12.59433       0.71722454   
    829000   1949.962      -10.740549     -11.244654     -11.244654      0.50410473   
    830000   2249.6748     -11.552901     -12.134488     -12.134488      0.58158658   
    831000   2502.2203     -11.789238     -12.436113     -12.436113      0.64687471   
    832000   2313.9817     -10.955337     -11.553548     -11.553548      0.59821122   
    833000   2198.705      -11.692982     -12.261391     -12.261391      0.56840986   
    834000   2475.6603     -11.784273     -12.424282     -12.424282      0.64000841   
    835000   2947.8218     -10.903329     -11.665401     -11.665401      0.76207176   
    836000   2204.7897     -11.82085      -12.390833     -12.390833      0.56998286   
    837000   2683.6806     -11.758378     -12.452164     -12.452164      0.69378589   
    838000   3155.4854     -10.670302     -11.486059     -11.486059      0.81575699   
    839000   2245.7321     -11.914678     -12.495246     -12.495246      0.58056731   
    840000   2934.2129     -11.674962     -12.433515     -12.433515      0.75855358   
    841000   2623.9245     -10.542686     -11.221023     -11.221023      0.67833772   
    842000   2277.5841     -11.972725     -12.561527     -12.561527      0.58880171   
    843000   3154.0736     -11.546546     -12.361938     -12.361938      0.81539202   
    844000   2076.4794     -10.571323     -11.108135     -11.108135      0.53681206   
    845000   2268.123      -12.006562     -12.592918     -12.592918      0.58635581   
    846000   3296.3215     -11.38297      -12.235136     -12.235136      0.85216598   
    847000   1829.4327     -10.64267      -11.115615     -11.115615      0.47294547   
    848000   2237.2424     -12.00137      -12.579743     -12.579743      0.57837256   
    849000   3236.5001     -11.205543     -12.042244     -12.042244      0.83670094   
    850000   1742.3574     -10.735594     -11.186029     -11.186029      0.45043473   
    851000   2207.1899     -11.9383       -12.508904     -12.508904      0.57060338   
    852000   3143.1205     -11.153769     -11.96633      -11.96633       0.81256043   
    853000   1881.9367     -10.83466      -11.321179     -11.321179      0.48651881   
    854000   2192.0977     -11.86299      -12.429692     -12.429692      0.56670173   
    855000   3224.1096     -11.200004     -12.033502     -12.033502      0.83349774   
    856000   2345.5885     -10.803573     -11.409956     -11.409956      0.60638222   
    857000   2182.8771     -11.830181     -12.394499     -12.394499      0.56431803   
    858000   3043.8769     -11.484925     -12.271829     -12.271829      0.78690394   
    859000   2107.1539     -10.497929     -11.042671     -11.042671      0.54474202   
    860000   2237.4013     -11.851267     -12.42968      -12.42968       0.57841363   
    861000   2761.1554     -11.696864     -12.410679     -12.410679      0.7138147    
[...]
   1890000   619.75348     -12.661605     -12.821824     -12.821824      0.16021885   
   1891000   488.13467     -12.075482     -12.201674     -12.201674      0.12619272   
   1892000   623.78358     -12.70813      -12.869391     -12.869391      0.16126071   
   1893000   507.17478     -12.231341     -12.362456     -12.362456      0.13111497   
   1894000   637.20041     -12.630112     -12.794841     -12.794841      0.16472923   
   1895000   588.58035     -12.511215     -12.663375     -12.663375      0.15215996   
   1896000   601.48478     -12.442099     -12.597595     -12.597595      0.15549602   
   1897000   603.69747     -12.668387     -12.824455     -12.824455      0.15606804   
   1898000   472.61165     -12.045586     -12.167766     -12.167766      0.1221797    
   1899000   631.72552     -12.722279     -12.885593     -12.885593      0.16331386   
   1900000   447.34729     -12.193061     -12.308709     -12.308709      0.11564835   
   1901000   663.83347     -12.658129     -12.829743     -12.829743      0.17161442   
   1902000   502.52169     -12.496131     -12.626043     -12.626043      0.12991205   
   1903000   625.76718     -12.462023     -12.623796     -12.623796      0.16177351   
   1904000   539.45204     -12.66581      -12.805269     -12.805269      0.1394593    
   1905000   562.68002     -12.035141     -12.180606     -12.180606      0.1454642    
   1906000   595.8598      -12.73967      -12.893712     -12.893712      0.15404185   
   1907000   416.22266     -12.139003     -12.246605     -12.246605      0.107602     
   1908000   653.17391     -12.699751     -12.868609     -12.868609      0.16885871   
   1909000   439.16202     -12.45892      -12.572452     -12.572452      0.11353229   
   1910000   664.78709     -12.506213     -12.678074     -12.678074      0.17186095   
   1911000   473.56343     -12.646099     -12.768525     -12.768525      0.12242576   
   1912000   711.67354     -12.083591     -12.267573     -12.267573      0.18398205   
   1913000   543.40406     -12.744726     -12.885206     -12.885206      0.14048097   
   1914000   445.21547     -12.109451     -12.224548     -12.224548      0.11509723   
   1915000   614.23149     -12.722221     -12.881012     -12.881012      0.1587913    
   1916000   433.74422     -12.456015     -12.568147     -12.568147      0.11213168   
   1917000   650.89581     -12.521456     -12.689726     -12.689726      0.16826977   
   1918000   476.33538     -12.679394     -12.802536     -12.802536      0.12314236   
   1919000   535.3738      -12.200717     -12.339122     -12.339122      0.13840499   
   1920000   531.00617     -12.747937     -12.885213     -12.885213      0.13727587   
   1921000   456.51507     -12.394913     -12.512931     -12.512931      0.11801841   
   1922000   613.04356     -12.637595     -12.796079     -12.796079      0.1584842    
   1923000   494.93002     -12.586461     -12.71441      -12.71441       0.12794945   
   1924000   827.26941     -12.350357     -12.564222     -12.564222      0.21386593   
   1925000   504.17023     -12.710229     -12.840567     -12.840567      0.13033823   
   1926000   405.85313     -12.331134     -12.436055     -12.436055      0.10492127   
   1927000   540.2757      -12.635871     -12.775544     -12.775544      0.13967223   
   1928000   474.35227     -12.673473     -12.796103     -12.796103      0.12262969   
   1929000   397.2504      -12.205191     -12.307888     -12.307888      0.10269729   
   1930000   553.28255     -12.717964     -12.860999     -12.860999      0.14303477   
   1931000   423.5014      -12.497539     -12.607023     -12.607023      0.1094837    
   1932000   529.79476     -12.543106     -12.680069     -12.680069      0.1369627    
   1933000   441.57357     -12.693078     -12.807233     -12.807233      0.11415573   
   1934000   332.73057     -12.272007     -12.358024     -12.358024      0.086017604  
   1935000   486.62222     -12.752663     -12.878465     -12.878465      0.12580172   
   1936000   449.51933     -12.440143     -12.556353     -12.556353      0.11620987   
   1937000   560.29543     -12.613093     -12.75794      -12.75794       0.14484774   
   1938000   463.31402     -12.712348     -12.832124     -12.832124      0.11977608   
   1939000   351.11576     -12.251197     -12.341967     -12.341967      0.090770547  
   1940000   512.27117     -12.741291     -12.873723     -12.873723      0.13243249   
   1941000   391.35343     -12.500888     -12.60206      -12.60206       0.1011728    
   1942000   555.67686     -12.605845     -12.749499     -12.749499      0.14365374   
   1943000   390.57634     -12.660371     -12.761342     -12.761342      0.10097191   
   1944000   492.20183     -12.231093     -12.358337     -12.358337      0.12724416   
   1945000   441.34889     -12.747898     -12.861996     -12.861996      0.11409764   
   1946000   335.00825     -12.419996     -12.506603     -12.506603      0.08660643   
   1947000   488.0497      -12.625858     -12.752029     -12.752029      0.12617075   
   1948000   436.09798     -12.709628     -12.822369     -12.822369      0.11274018   
   1949000   421.66255     -12.435129     -12.544137     -12.544137      0.10900833   
   1950000   455.58835     -12.750897     -12.868676     -12.868676      0.11777883   
   1951000   313.1098      -12.232147     -12.313092     -12.313092      0.080945237  
   1952000   462.26767     -12.781452     -12.900958     -12.900958      0.11950557   
   1953000   360.04187     -12.306353     -12.399431     -12.399431      0.093078128  
   1954000   449.63055     -12.777515     -12.893754     -12.893754      0.11623862   
   1955000   351.88982     -12.476142     -12.567112     -12.567112      0.090970659  
   1956000   494.14907     -12.673055     -12.800803     -12.800803      0.12774756   
   1957000   395.1056      -12.644718     -12.746861     -12.746861      0.10214281   
   1958000   559.38918     -12.357496     -12.502109     -12.502109      0.14461345   
   1959000   424.76555     -12.7745       -12.88431      -12.88431       0.10981051   
   1960000   236.82046     -12.357747     -12.41897      -12.41897       0.061222894  
   1961000   430.14874     -12.725126     -12.836328     -12.836328      0.11120218   
   1962000   267.37757     -12.426836     -12.495959     -12.495959      0.069122526  
   1963000   402.05839     -12.752564     -12.856505     -12.856505      0.10394025   
   1964000   486.52449     -12.492078     -12.617854     -12.617854      0.12577645   
   1965000   396.93308     -12.758369     -12.860984     -12.860984      0.10261525   
   1966000   337.80735     -12.482717     -12.570047     -12.570047      0.087330054  
   1967000   397.56494     -12.766004     -12.868782     -12.868782      0.1027786    
   1968000   271.64171     -12.355149     -12.425374     -12.425374      0.070224893  
   1969000   396.60919     -12.773333     -12.875864     -12.875864      0.10253152   
   1970000   465.2154      -12.349578     -12.469845     -12.469845      0.12026762   
   1971000   410.90926     -12.794825     -12.901053     -12.901053      0.10622838   
   1972000   343.36493     -12.492662     -12.581428     -12.581428      0.088766802  
   1973000   382.4856      -12.777221     -12.876101     -12.876101      0.098880289  
   1974000   333.8217      -12.525137     -12.611437     -12.611437      0.086299683  
   1975000   381.70991     -12.744611     -12.843291     -12.843291      0.098679756  
   1976000   373.14992     -12.601561     -12.698028     -12.698028      0.096466826  
   1977000   369.44012     -12.712482     -12.80799      -12.80799       0.095507767  
   1978000   315.40473     -12.687001     -12.76854      -12.76854       0.081538521  
   1979000   403.44007     -12.673941     -12.778239     -12.778239      0.10429744   
   1980000   286.92575     -12.709237     -12.783413     -12.783413      0.074176128  
   1981000   453.03896     -12.587286     -12.704405     -12.704405      0.11711976   
   1982000   289.77724     -12.71379      -12.788704     -12.788704      0.074913297  
   1983000   497.72755     -12.566638     -12.695311     -12.695311      0.12867267   
   1984000   306.59884     -12.779463     -12.858725     -12.858725      0.07926202   
   1985000   505.84814     -12.39289      -12.523662     -12.523662      0.13077201   
   1986000   313.2302      -12.794015     -12.874991     -12.874991      0.080976362  
   1987000   498.04083     -12.514201     -12.642955     -12.642955      0.12875366   
   1988000   323.56298     -12.791609     -12.875257     -12.875257      0.083647595  
   1989000   278.98462     -12.506899     -12.579023     -12.579023      0.072123185  
   1990000   336.55705     -12.790309     -12.877316     -12.877316      0.087006827  
   1991000   176.98223     -12.461134     -12.506888     -12.506888      0.045753497  
   1992000   355.35648     -12.797165     -12.889032     -12.889032      0.09186686   
   1993000   330.80896     -12.528271     -12.613792     -12.613792      0.085520829  
   1994000   346.99416     -12.808982     -12.898687     -12.898687      0.089705031  
   1995000   290.44568     -12.569597     -12.644683     -12.644683      0.075086102  
   1996000   307.01866     -12.810382     -12.889752     -12.889752      0.079370553  
   1997000   241.45413     -12.601092     -12.663513     -12.663513      0.062420791  
   1998000   287.03226     -12.80535      -12.879553     -12.879553      0.074203662  
   1999000   382.84041     -12.556206     -12.655178     -12.655178      0.098972014  
   2000000   281.33893     -12.794196     -12.866928     -12.866928      0.072731821  
   2001000   421.2535      -12.652877     -12.761779     -12.761779      0.10890258   
   2002000   257.71639     -12.692024     -12.758649     -12.758649      0.066624916  
   2003000   282.94257     -12.817479     -12.890625     -12.890625      0.073146395  
   2004000   333.60566     -12.575418     -12.661662     -12.661662      0.086243832  
   2005000   261.27455     -12.764129     -12.831674     -12.831674      0.067544773  
   2006000   302.09407     -12.787779     -12.865877     -12.865877      0.078097446  
   2007000   234.87247     -12.641954     -12.702674     -12.702674      0.060719299  
   2008000   287.8134      -12.825497     -12.899903     -12.899903      0.074405604  
   2009000   246.10805     -12.519904     -12.583528     -12.583528      0.063623924  
   2010000   253.66776     -12.773696     -12.839274     -12.839274      0.065578264  
   2011000   284.66959     -12.791908     -12.865501     -12.865501      0.073592864  
   2012000   231.033       -12.622854     -12.682581     -12.682581      0.059726718  
   2013000   249.71025     -12.820234     -12.884789     -12.884789      0.064555167  
   2014000   185.02479     -12.584662     -12.632494     -12.632494      0.047832662  
   2015000   263.41835     -12.796302     -12.864401     -12.864401      0.068098988  
   2016000   255.13873     -12.783978     -12.849937     -12.849937      0.065958539  
   2017000   226.45912     -12.725073     -12.783617     -12.783617      0.058544278  
   2018000   284.61778     -12.796687     -12.870267     -12.870267      0.07357947   
   2019000   167.1929      -12.657305     -12.700527     -12.700527      0.043222758  
   2020000   233.2677      -12.799769     -12.860073     -12.860073      0.060304432  
   2021000   285.79766     -12.784201     -12.858086     -12.858086      0.073884495  
   2022000   190.87021     -12.664722     -12.714066     -12.714066      0.049343821  
   2023000   216.96536     -12.828327     -12.884417     -12.884417      0.056089947  
   2024000   150.34898     -12.645851     -12.68472      -12.68472       0.038868261  
   2025000   237.33898     -12.793602     -12.854958     -12.854958      0.061356943  
   2026000   226.3207      -12.787428     -12.845937     -12.845937      0.058508494  
   2027000   186.545       -12.706431     -12.754656     -12.754656      0.048225669  
   2028000   222.28595     -12.837233     -12.894698     -12.894698      0.057465428  
   2029000   370.13651     -12.672299     -12.767987     -12.767987      0.095687798  
   2030000   208.06962     -12.810021     -12.863811     -12.863811      0.05379022   
   2031000   204.20182     -12.813696     -12.866486     -12.866486      0.052790314  
   2032000   190.18801     -12.732496     -12.781664     -12.781664      0.049167461  
   2033000   203.71023     -12.825737     -12.8784       -12.8784        0.052663227  
   2034000   191.81618     -12.762397     -12.811985     -12.811985      0.049588375  
   2035000   146.79948     -12.768011     -12.805962     -12.805962      0.037950644  
   2036000   205.7217      -12.826505     -12.879688     -12.879688      0.053183232  
   2037000   179.10204     -12.742017     -12.788319     -12.788319      0.04630151   
   2038000   178.85083     -12.818805     -12.865042     -12.865042      0.046236568  
   2039000   182.41287     -12.800059     -12.847217     -12.847217      0.047157429  
   2040000   147.44859     -12.75318      -12.791299     -12.791299      0.038118452  
   2041000   191.41533     -12.844597     -12.894082     -12.894082      0.049484747  
   2042000   298.55646     -12.677607     -12.75479      -12.75479       0.077182903  
   2043000   159.14552     -12.824003     -12.865145     -12.865145      0.041142347  
   2044000   170.91048     -12.828003     -12.872187     -12.872187      0.044183828  
   2045000   154.69948     -12.76595      -12.805943     -12.805943      0.039992956  
   2046000   161.35689     -12.840471     -12.882185     -12.882185      0.041714029  
   2047000   169.73311     -12.811563     -12.855443     -12.855443      0.043879453  
   2048000   132.18146     -12.763141     -12.797312     -12.797312      0.03417159   
   2049000   155.52027     -12.854938     -12.895143     -12.895143      0.040205145  
   2050000   247.67548     -12.756611     -12.820641     -12.820641      0.064029138  
   2051000   143.56074     -12.826625     -12.863738     -12.863738      0.037113365  
   2052000   134.92811     -12.835911     -12.870792     -12.870792      0.034881653  
   2053000   119.30668     -12.778848     -12.809691     -12.809691      0.030843198  
   2054000   131.1855      -12.846694     -12.880608     -12.880608      0.033914113  
   2055000   152.48429     -12.840547     -12.879967     -12.879967      0.039420284  
   2056000   143.63197     -12.787146     -12.824278     -12.824278      0.037131779  
   2057000   128.29684     -12.841997     -12.875164     -12.875164      0.033167336  
   2058000   132.70413     -12.833484     -12.867791     -12.867791      0.03430671   
   2059000   119.03646     -12.789682     -12.820455     -12.820455      0.030773341  
   2060000   107.05703     -12.849468     -12.877145     -12.877145      0.027676415  
   2061000   122.27168     -12.849549     -12.881159     -12.881159      0.031609711  
   2062000   101.14248     -12.805973     -12.83212      -12.83212       0.026147384  
   2063000   105.79443     -12.859795     -12.887145     -12.887145      0.027350006  
   2064000   127.13613     -12.85118      -12.884047     -12.884047      0.032867268  
   2065000   119.60024     -12.809608     -12.840527     -12.840527      0.030919089  
   2066000   100.73872     -12.863938     -12.889981     -12.889981      0.026043002  
   2067000   114.42835     -12.847889     -12.877472     -12.877472      0.02958205   
   2068000   107.85838     -12.80564      -12.833523     -12.833523      0.027883579  
   2069000   87.675705     -12.867536     -12.890202     -12.890202      0.022665949  
   2070000   100.40986     -12.84891      -12.874868     -12.874868      0.025957987  
   2071000   75.820389     -12.814217     -12.833818     -12.833818      0.019601109  
   2072000   75.456799     -12.872895     -12.892403     -12.892403      0.019507114  
   2073000   93.320926     -12.851373     -12.875499     -12.875499      0.024125353  
   2074000   57.735129     -12.828005     -12.842931     -12.842931      0.014925702  
   2075000   67.133712     -12.878247     -12.895603     -12.895603      0.017355427  
   2076000   88.648314     -12.853347     -12.876264     -12.876264      0.022917388  
   2077000   48.845134     -12.84101      -12.853638     -12.853638      0.012627458  
   2078000   60.41975      -12.882541     -12.898161     -12.898161      0.015619731  
   2079000   81.640828     -12.855133     -12.876239     -12.876239      0.021105811  
   2080000   41.834771     -12.852686     -12.863502     -12.863502      0.010815137  
   2081000   53.528389     -12.885828     -12.899666     -12.899666      0.013838175  
   2082000   70.719096     -12.857795     -12.876078     -12.876078      0.018282321  
   2083000   35.568396     -12.863544     -12.872739     -12.872739      0.0091951519 
   2084000   46.032346     -12.888521     -12.900421     -12.900421      0.011900295  
   2085000   56.776624     -12.860714     -12.875391     -12.875391      0.014677909  
   2086000   29.966734     -12.873162     -12.880909     -12.880909      0.0077470086 
   2087000   38.124775     -12.890856     -12.900712     -12.900712      0.0098560279 
   2088000   41.6089       -12.863227     -12.873984     -12.873984      0.010756745  
   2089000   24.224434     -12.880111     -12.886374     -12.886374      0.0062625077 
   2090000   30.377728     -12.892892     -12.900745     -12.900745      0.007853259  
   2091000   30.320093     -12.868443     -12.876281     -12.876281      0.0078383593 
   2092000   18.79151      -12.886237     -12.891095     -12.891095      0.0048579866 
   2093000   22.87782      -12.895        -12.900914     -12.900914      0.0059143807 
   2094000   23.360068     -12.878934     -12.884973     -12.884973      0.0060390514 
   2095000   13.071699     -12.89278      -12.89616      -12.89616       0.0033792994 
   2096000   13.834487     -12.897893     -12.90147      -12.90147       0.0035764955 
   2097000   11.706974     -12.89121      -12.894237     -12.894237      0.0030264904 
   2098000   5.2135283     -12.898772     -12.90012      -12.90012       0.0013478029 
   2099000   3.4584417     -12.900806     -12.9017       -12.9017        0.00089407735
   2100000   0.14592586    -12.901465     -12.901503     -12.901503      3.7724795e-05
   2100028   0.10079321    -12.901536     -12.901562     -12.901562      2.6057089e-05
Loop time of 3.29202 on 1 procs for 1000000 steps with 3 atoms

Performance: 2624.526 ns/day, 0.009 hours/ns, 303764.563 timesteps/s, 911.294 katom-step/s
94.9% CPU use with 1 MPI tasks x 1 OpenMP threads

MPI task timing breakdown:
Section |  min time  |  avg time  |  max time  |%varavg| %total
---------------------------------------------------------------
Pair    | 1.6022     | 1.6022     | 1.6022     |   0.0 | 48.67
Neigh   | 0.28553    | 0.28553    | 0.28553    |   0.0 |  8.67
Comm    | 0.35693    | 0.35693    | 0.35693    |   0.0 | 10.84
Output  | 0.19654    | 0.19654    | 0.19654    |   0.0 |  5.97
Modify  | 0.64797    | 0.64797    | 0.64797    |   0.0 | 19.68
Other   |            | 0.2029     |            |       |  6.16

Nlocal:              3 ave           3 max           3 min
Histogram: 1 0 0 0 0 0 0 0 0 0
Nghost:             60 ave          60 max          60 min
Histogram: 1 0 0 0 0 0 0 0 0 0
Neighs:              0 ave           0 max           0 min
Histogram: 1 0 0 0 0 0 0 0 0 0
FullNghs:            8 ave           8 max           8 min
Histogram: 1 0 0 0 0 0 0 0 0 0

Total # of neighbors = 8
Ave neighs/atom = 2.6666667
Neighbor list builds = 9410
Dangerous builds = 0
write_restart 	./endconf/endconf*3.restart
System init for write_restart ...

Total wall time: 0:00:07
