LAMMPS (7 Feb 2024 - Update 1)
OMP_NUM_THREADS environment is not set. Defaulting to 1 thread. (src/comm.cpp:98)
  using 1 OpenMP thread(s) per MPI task
#============Initialization=================
units 			metal
atom_style 		atomic
boundary 		p p p


#=========Simulation box definition=========
region 			bigbox block 0 10 0 10 0 10
create_box 		1 bigbox
Created orthogonal box = (0 0 0) to (10 10 10)
  1 by 1 by 1 MPI processor grid

#==================Atoms====================
create_atoms 	1 random 3 12345 bigbox
Created 3 atoms
  using lattice units in orthogonal box = (0 0 0) to (10 10 10)
  create_atoms CPU = 0.000 seconds
labelmap 		atom 1 C
mass 			* 12.01

#==========Velocity initialization==========
velocity 		all create 0.001 12345 rot yes dist gaussian

#======Pair style for atom interactions=============
pair_style 		airebo 2.5
pair_coeff 		* * CH.airebo C
Reading airebo potential file CH.airebo with DATE: 2011-10-25

#==============Neighbor selection===================
neighbor 		0.3 bin
neigh_modify 	every 2 delay 10 check yes

#====Fixes for time integration and constraints=====
fix 			1 all nve
fix 			2 all temp/berendsen 300.0 3000.0 0.1

#=======Custom force field for wall reflection=====
compute         wallforce all property/atom fx fy fz

variable        reflforce equal 1.0e3
variable        refltime equal 0.1

# Define a region to apply wall reflection
region          reflectplane block INF INF INF INF 0.0 1.0 units box

# Apply force to atoms crossing the reflection plane
fix             wallreflect all adapt 1 move variable reflforce v_reflforce region reflectplane remap v_refltime units box
ERROR: Nothing to adapt in fix adapt command (src/fix_adapt.cpp:87)
Last command: fix             wallreflect all adapt 1 move variable reflforce v_reflforce region reflectplane remap v_refltime units box
