LAMMPS (7 Feb 2024 - Update 1)
OMP_NUM_THREADS environment is not set. Defaulting to 1 thread. (src/comm.cpp:98)
  using 1 OpenMP thread(s) per MPI task
#============Initialization=================
units 			metal
atom_style 		atomic
boundary 		f f f


#=========Simulation box definition=========
region 			bigbox block 0 10 0 10 0 10
create_box 		1 bigbox
Created orthogonal box = (0 0 0) to (10 10 10)
  1 by 1 by 1 MPI processor grid

#==================Atoms====================
region 			safezone block 1 9 1 9 1 9
create_atoms 	1 random 3 12345 safezone
Created 3 atoms
  using lattice units in orthogonal box = (0 0 0) to (10 10 10)
  create_atoms CPU = 0.001 seconds
labelmap 		atom 1 C
mass 			* 12.01

#==========Velocity initialization==========
velocity 		all create 1.0 12345 rot yes dist gaussian

#======Pair style for atom interactions=============
pair_style 		airebo 2.5
pair_coeff 		* * CH.airebo C
Reading airebo potential file CH.airebo with DATE: 2011-10-25

#==============Neighbor selection===================
neighbor 		0.3 bin
neigh_modify 	every 2 delay 10 check yes

#====Fixes for time integration and constraints=====
fix 			1 all nve
fix 			2 all temp/berendsen 300.0 3000.0 0.1

#==============Custom Wall force====================
#variable cutoff equal 1.222462
#fix             xlo_wall all wall/lj126 xlo EDGE 1.0 1.0 ${cutoff} units box
#fix             xhi_wall all wall/lj126 xhi EDGE 1.0 1.0 ${cutoff} units box
#fix             ylo_wall all wall/lj126 ylo EDGE 1.0 1.0 ${cutoff} units box
#fix             yhi_wall all wall/lj126 yhi EDGE 1.0 1.0 ${cutoff} units box
#fix             zlo_wall all wall/lj126 zlo EDGE 1.0 1.0 ${cutoff} units box
#fix             zhi_wall all wall/lj126 zhi EDGE 1.0 1.0 ${cutoff} units box


# Wall with harmonic potential
variable        k equal 100.0
variable        r0 equal 4.0

fix             xlo_wall all wall/harmonic xlo EDGE v_k 1.0 0.7
fix             xhi_wall all wall/harmonic xhi EDGE v_k 1.0 0.7
fix             ylo_wall all wall/harmonic ylo EDGE v_k 1.0 0.7
fix             yhi_wall all wall/harmonic yhi EDGE v_k 1.0 0.7
fix             zlo_wall all wall/harmonic zlo EDGE v_k 1.0 0.7
fix             zhi_wall all wall/harmonic zhi EDGE v_k 1.0 0.7

#=====================Timestep======================
timestep 		0.0001

#========System temperature printing info===========
thermo_style 	custom step temp etotal pe
thermo 			500

#===============Define dump command=================
dump 			1 all cfg 200 ./dump/dump.tensile_*.cfg mass type xs ys zs vx vy vz id

#================Run simulation=====================
run 			200000
Neighbor list info ...
  update: every = 2 steps, delay = 10 steps, check = yes
  max neighbors/atom: 2000, page size: 100000
  master list distance cutoff = 8.8
  ghost atom cutoff = 8.8
  binsize = 4.4, bins = 3 3 3
  1 neighbor lists, perpetual/occasional/extra = 1 0 0
  (1) pair airebo, perpetual
      attributes: full, newton on, ghost
      pair build: full/bin/ghost
      stencil: full/ghost/bin/3d
      bin: standard
Per MPI rank memory allocation (min/avg/max) = 3.854 | 3.854 | 3.854 Mbytes
   Step          Temp          TotEng         PotEng    
         0   1              6.4047749e-05 -0.00019447254
       500   120.31732      0.030852937   -0.00025153182
      1000   195.58818      0.050140491   -0.00042302196
      1500   244.35959      0.06245538    -0.00071653331
      2000   277.4235       0.070442233   -0.0012773699 
      2500   301.34422      0.075667701   -0.0022358953 
      3000   324.28541      0.078893785   -0.0049405738 
      3500   325.30468      0.081496493   -0.0026013671 
      4000   334.6094       0.084379031   -0.0021242876 
      4500   343.16791      0.086768416   -0.0019474511 
      5000   351.72852      0.088928329   -0.0020006312 
      5500   360.72317      0.090830323   -0.0024239361 
      6000   371.65147      0.092389971   -0.0036894749 
      6500   374.06362      0.093165839   -0.0035371974 
      7000   376.12953      0.095354626   -0.0018824907 
      7500   382.37725      0.097787324   -0.0010649548 
      8000   389.97167      0.10018152    -0.00063406696
      8500   19568.332     -0.93696268    -5.9957736    
      9000   15202.837     -2.159012      -6.0892539    
      9500   6467.9357     -3.1433862     -4.8154788    
     10000   5919.0644     -3.7723717     -5.3025699    
     10500   6704.4231     -4.2861335     -6.0193629    
     11000   5203.2643     -4.6276455     -5.9727949    
     11500   560.41523     -4.9020278     -5.0469065    
     12000   3723.0618     -5.1197572     -6.0822442    
     12500   1458.3495     -5.3114242     -5.6884371    
     13000   414.70296     -5.4362893     -5.5434985    
     13500   2057.4827     -5.5584142     -6.0903152    
     14000   2177.7177     -5.646922      -6.2099062    
     14500   151.92034     -5.7136405     -5.752915     
     15000   965.18195     -5.7738488     -6.0233679    
     15500   1217.4654     -5.818687      -6.1334265    
     16000   832.51097     -5.8465479     -6.0617689    
     16500   486.54023     -5.8759616     -6.0017421    
     17000   175.58322     -5.9001924     -5.9455842    
     17500   771.90137     -5.9188484     -6.1184006    
     18000   829.13626     -5.9339513     -6.1482999    
     18500   941.61578     -5.9418621     -6.1852889    
     19000   897.34277     -5.9518024     -6.1837837    
     19500   373.91275     -5.9584626     -6.0551266    
     20000   313.3984      -5.9662956     -6.0473154    
     20500   316.20036     -5.9723152     -6.0540594    
     21000   668.07        -5.9760279     -6.1487375    
     21500   477.4345      -5.9829133     -6.1063398    
     22000   771.42193     -5.9875007     -6.1869289    
     22500   754.88529     -5.9912112     -6.1863644    
     23000   826.58749     -5.9915975     -6.2052872    
     23500   829.09392     -5.9937531     -6.2080907    
     24000   611.63262     -5.9940246     -6.1521441    
     24500   609.21419     -5.9959444     -6.1534386    
     25000   448.95757     -5.9971672     -6.1132318    
     25500   480.29517     -5.9977529     -6.121919     
     26000   486.23716     -5.9968868     -6.1225889    
     26500   672.09609     -5.9965902     -6.1703407    
     27000   674.86368     -5.9964672     -6.1709331    
     27500   833.47695     -5.9947453     -6.210216     
     28000   829.76498     -5.9944098     -6.2089209    
     28500   774.06841     -5.9924002     -6.1925126    
     29000   785.65372     -5.9920605     -6.1951679    
     29500   615.88091     -5.9906323     -6.14985      
     30000   620.98344     -5.9901002     -6.150637     
     30500   537.45357     -5.9892809     -6.1282236    
     31000   606.14411     -5.9886128     -6.1453133    
     31500   606.0125      -5.9879832     -6.1446498    
     32000   767.86584     -5.9867213     -6.1852302    
     32500   764.72405     -5.9858391     -6.1835358    
     33000   874.83974     -5.9839046     -6.2100685    
     33500   875.22137     -5.9833104     -6.2095729    
     34000   818.58902     -5.9812379     -6.1928597    
     34500   832.05589     -5.9805837     -6.1956871    
     35000   694.62076     -5.9789899     -6.1585634    
     35500   709.49091     -5.9782305     -6.1616483    
     36000   634.41824     -5.9771996     -6.1412096    
     36500   701.91689     -5.9762968     -6.1577565    
     37000   692.06537     -5.9754234     -6.1543364    
     37500   836.98135     -5.9727214     -6.1890981    
     38000   829.92522     -5.9723635     -6.186916     
     38500   927.48828     -5.9706522     -6.2104268    
     39000   602.0316      -6.052809      -6.2084464    
     39500   906.97763     -5.973637      -6.2081091    
     40000   891.17515     -5.9785566     -6.2089435    
     40500   865.1183      -5.9807359     -6.2043866    
     41000   866.1315      -5.9815838     -6.2054963    
     41500   847.13325     -5.9813661     -6.2003672    
     42000   855.11705     -5.9808033     -6.2018684    
     42500   891.22832     -5.9796234     -6.210024     
     43000   891.04738     -5.9809575     -6.2113114    
     43500   886.01507     -5.9810044     -6.2100573    
     44000   892.79426     -5.9799392     -6.2107446    
     44500   902.1727      -5.9789026     -6.2121325    
     45000   898.57785     -5.9769794     -6.2092801    
     45500   4997.7358     -6.8054029     -8.097419     
     46000   2184.954      -8.1572172     -8.7220721    
     46500   4997.8024     -9.1860088     -10.478042    
     47000   1992.5914     -9.8507138     -10.365839    
     47500   282.21075     -10.36301      -10.435967    
     48000   5736.4935     -10.778343     -12.261343    
     48500   4175.0604     -11.123563     -12.202901    
     49000   3940.2695     -11.386065     -12.404705    
     49500   2510.9366     -11.606244     -12.255372    
     50000   2841.0378     -11.780356     -12.514822    
     50500   3608.6089     -11.924688     -12.857587    
     51000   2454.8417     -12.051716     -12.686343    
     51500   1840.581      -12.1507       -12.626527    
     52000   1949.195      -12.226381     -12.730288    
     52500   1780.2155     -12.280737     -12.740958    
     53000   1594.9495     -12.321563     -12.73389     
     53500   1630.7186     -12.354614     -12.776188    
     54000   1787.0867     -12.380824     -12.842822    
     54500   1755.7738     -12.399436     -12.853339    
     55000   1649.7319     -12.413616     -12.840105    
     55500   1211.6693     -12.425926     -12.739167    
     56000   843.93804     -12.436019     -12.654194    
     56500   702.2197      -12.442714     -12.624252    
     57000   703.56696     -12.448423     -12.63031     
     57500   803.88307     -12.452796     -12.660616    
     58000   1113.5089     -12.458026     -12.745891    
     58500   1504.6388     -12.462822     -12.851801    
     59000   1539.0409     -12.465951     -12.863824    
     59500   1469.3312     -12.468557     -12.848409    
     60000   1085.0088     -12.470773     -12.75127     
     60500   764.39717     -12.472363     -12.669975    
     61000   1059.998      -12.454495     -12.728526    
     61500   1124.0239     -12.434558     -12.725141    
     62000   1270.6945     -12.420744     -12.749245    
     62500   1311.5022     -12.411441     -12.750491    
     63000   1367.3148     -12.410139     -12.763618    
     63500   1638.5138     -12.40825      -12.831839    
     64000   1632.0182     -12.406472     -12.828382    
     64500   1731.0939     -12.406265     -12.853788    
     65000   1171.6174     -12.407604     -12.710491    
     65500   908.46034     -12.411364     -12.64622     
     66000   965.02356     -12.411095     -12.660573    
     66500   749.484       -12.411432     -12.605189    
     67000   889.01203     -12.410302     -12.64013     
     67500   781.18998     -12.409583     -12.611537    
     68000   1206.7418     -12.410936     -12.722903    
     68500   1460.9062     -12.409645     -12.787319    
     69000   1436.0073     -12.409536     -12.780773    
     69500   1582.0455     -12.409099     -12.81809     
     70000   1407.2786     -12.386106     -12.749916    
     70500   944.26646     -12.366534     -12.610646    
     71000   1068.6921     -12.359696     -12.635974    
     71500   1698.102      -12.350788     -12.789782    
     72000   1646.8034     -12.345054     -12.770786    
     72500   2100.7303     -12.341012     -12.884093    
     73000   1396.9113     -12.339547     -12.700677    
     73500   1109.1915     -12.344714     -12.631462    
     74000   1413.7361     -12.343724     -12.709203    
     74500   1175.1505     -12.340492     -12.644292    
     75000   1568.3095     -12.338152     -12.743592    
     75500   1148.6307     -12.333984     -12.630928    
     76000   810.92002     -12.335955     -12.545595    
     76500   1323.7046     -12.335062     -12.677266    
     77000   1243.9371     -12.332878     -12.654461    
     77500   1640.1953     -12.333286     -12.75731     
     78000   1549.2817     -12.331756     -12.732276    
     78500   1140.6731     -12.337785     -12.632672    
     79000   1586.827      -12.341603     -12.75183     
     79500   1502.322      -12.341452     -12.729832    
     80000   1728.0729     -12.342686     -12.789428    
     80500   1573.0746     -12.341696     -12.748367    
     81000   1024.5984     -12.343966     -12.608846    
     81500   1136.9208     -12.346005     -12.639922    
     82000   1148.5265     -12.34285      -12.639767    
     82500   1094.1142     -12.341804     -12.624654    
     83000   1256.6599     -12.338516     -12.663389    
     83500   883.66951     -12.336806     -12.565253    
     84000   904.21591     -12.350194     -12.583952    
     84500   1171.078      -12.331148     -12.633896    
     85000   1284.8256     -12.329703     -12.661857    
     85500   1411.4725     -12.329582     -12.694477    
     86000   1526.4495     -12.330405     -12.725023    
     86500   1621.3262     -12.331813     -12.750958    
     87000   1747.0773     -12.333478     -12.785133    
     87500   1770.2669     -12.334328     -12.791978    
     88000   1795.666      -12.335214     -12.79943     
     88500   1752.663      -12.335089     -12.788188    
     89000   1712.6694     -12.335567     -12.778326    
     89500   1639.3377     -12.336135     -12.759937    
     90000   1567.404      -12.335412     -12.740618    
     90500   1556.3661     -12.333904     -12.736256    
     91000   1387.1083     -12.386186     -12.744782    
     91500   1388.4954     -12.318722     -12.677676    
     92000   1306.3257     -12.313891     -12.651603    
     92500   1646.4008     -12.309676     -12.735304    
     93000   1646.0152     -12.304947     -12.730476    
     93500   1587.8621     -12.302429     -12.712924    
     94000   1722.3138     -12.299227     -12.74448     
     94500   1396.467      -12.296752     -12.657767    
     95000   1261.5329     -12.296777     -12.622909    
     95500   1458.2085     -12.295507     -12.672484    
     96000   1524.904      -12.292191     -12.686409    
     96500   1399.1893     -12.275998     -12.637717    
     97000   1678.5949     -12.291012     -12.724962    
     97500   1803.749      -12.30091      -12.767216    
     98000   1770.1354     -12.309077     -12.766693    
     98500   1873.7263     -12.316603     -12.800999    
     99000   2025.1935     -12.321001     -12.844554    
     99500   1950.7125     -12.323895     -12.828194    
    100000   1915.0498     -12.326184     -12.821263    
    100500   1806.5225     -12.326852     -12.793875    
    101000   1528.6179     -12.327595     -12.722774    
    101500   1503.3803     -12.328337     -12.716992    
    102000   1598.0008     -12.326884     -12.74        
    102500   1548.5556     -12.324551     -12.724884    
    103000   1569.3339     -12.32226      -12.727965    
    103500   1632.6307     -12.319363     -12.741431    
    104000   1527.1849     -12.317189     -12.711997    
    104500   1005.4643     -12.437098     -12.69703     
    105000   1307.6943     -12.268337     -12.606403    
    105500   1606.4259     -12.238624     -12.653918    
    106000   2232.6445     -12.223613     -12.800797    
    106500   2191.618      -12.237996     -12.804574    
    107000   1993.7463     -12.248179     -12.763603    
    107500   1836.3622     -12.255046     -12.729783    
    108000   1632.1354     -12.260048     -12.681988    
    108500   1625.6416     -12.262451     -12.682712    
    109000   1489.7539     -12.262966     -12.648098    
    109500   1484.689      -12.262501     -12.646323    
    110000   1416.6313     -12.261255     -12.627483    
    110500   1390.9922     -12.259853     -12.619453    
    111000   1446.2685     -12.258483     -12.632373    
    111500   1561.8122     -12.256804     -12.660564    
    112000   1667.0038     -12.25489      -12.685844    
    112500   2043.1337     -12.260469     -12.788661    
    113000   2148.3712     -12.271091     -12.826488    
    113500   2165.2989     -12.258977     -12.81875     
    114000   2027.5608     -12.267201     -12.791366    
    114500   2118.3307     -12.272247     -12.819878    
    115000   1978.4723     -12.274544     -12.786019    
    115500   1776.7916     -12.277549     -12.736886    
    116000   1848.3303     -12.279065     -12.756896    
    116500   1820.5617     -12.277292     -12.747944    
    117000   1636.6291     -12.275406     -12.698508    
    117500   1733.6772     -12.2732       -12.72139     
    118000   1670.5975     -12.269783     -12.701667    
    118500   1572.5576     -12.26811      -12.674648    
    119000   1947.9148     -12.256809     -12.760385    
    119500   2123.5741     -12.246057     -12.795044    
    120000   1996.7074     -12.238417     -12.754606    
    120500   2022.7136     -12.221524     -12.744437    
    121000   2278.4864     -12.213075     -12.80211     
    121500   2117.3252     -12.207623     -12.754994    
    122000   2351.8132     -12.203062     -12.811053    
    122500   1719.4399     -12.199927     -12.644437    
    123000   1428.2394     -12.200529     -12.569758    
    123500   1655.0289     -12.196906     -12.624764    
    124000   2066.0345     -12.199276     -12.733388    
    124500   2011.1069     -12.221971     -12.741883    
    125000   2037.912      -12.225097     -12.751938    
    125500   1687.0523     -12.225938     -12.662076    
    126000   2462.4247     -12.227591     -12.864178    
    126500   2095.8766     -12.22411      -12.765936    
    127000   2508.0221     -12.22359      -12.871964    
    127500   1586.6771     -12.317621     -12.727809    
    128000   1156.2255     -12.267896     -12.566804    
    128500   1372.8345     -12.185341     -12.540247    
    129000   1624.3773     -12.170561     -12.590495    
    129500   1415.2088     -12.163148     -12.529008    
    130000   1849.8215     -12.156296     -12.634512    
    130500   1544.3173     -12.153613     -12.552851    
    131000   2156.9964     -12.155849     -12.713476    
    131500   2462.5467     -12.153952     -12.79057     
    132000   2203.1944     -12.154887     -12.724458    
    132500   2317.4103     -12.153782     -12.75288     
    133000   2048.5608     -12.157076     -12.68667     
    133500   2459.8666     -12.161531     -12.797456    
    134000   2084.3817     -12.156281     -12.695136    
    134500   1957.2137     -12.161607     -12.667586    
    135000   2017.4588     -12.165257     -12.686811    
    135500   2211.9105     -12.160706     -12.73253     
    136000   1998.2184     -12.156976     -12.673556    
    136500   1830.9826     -12.159359     -12.632705    
    137000   1956.5817     -12.13489      -12.640706    
    137500   2482.7409     -12.127517     -12.769356    
    138000   2846.2137     -12.120016     -12.85582     
    138500   2811.1868     -12.117434     -12.844183    
    139000   2993.1988     -12.115619     -12.889421    
    139500   2390.9601     -12.115262     -12.733374    
    140000   2060.9458     -12.121386     -12.654183    
    140500   2348.8238     -12.122224     -12.729443    
    141000   2044.1424     -12.119871     -12.648324    
    141500   2194.2378     -12.119042     -12.686297    
    142000   2158.2283     -12.115188     -12.673134    
    142500   1626.1007     -12.114089     -12.534469    
    143000   1489.677      -12.09622      -12.481332    
    143500   1639.6516     -12.086318     -12.510202    
    144000   1471.4705     -12.05513      -12.435535    
    144500   1593.9813     -12.056665     -12.468741    
    145000   2192.5767     -12.06196      -12.628785    
    145500   2331.8442     -12.062785     -12.665614    
    146000   2348.9876     -12.065786     -12.673047    
    146500   2723.3456     -12.068876     -12.772916    
    147000   2451.5825     -12.072795     -12.706579    
    147500   2291.9524     -12.080955     -12.673471    
    148000   2713.6013     -12.086666     -12.788187    
    148500   2608.483      -12.089054     -12.763399    
    149000   2548.7938     -12.092106     -12.751021    
    149500   2581.792      -12.091769     -12.759215    
    150000   1953.728      -12.100318     -12.605397    
    150500   1962.2521     -12.075119     -12.582401    
    151000   1681.4892     -12.066463     -12.501162    
    151500   2656.28       -12.077887     -12.764589    
    152000   2384.0954     -12.04857      -12.664907    
    152500   2328.9235     -12.0564       -12.658474    
    153000   2179.274      -12.061524     -12.624911    
    153500   2124.1862     -12.065089     -12.614234    
    154000   1984.8174     -12.067594     -12.580709    
    154500   1856.6147     -12.069421     -12.549393    
    155000   1767.6471     -12.070517     -12.527489    
    155500   1789.0044     -12.070765     -12.533259    
    156000   1798.1849     -12.070342     -12.53521     
    156500   1829.9627     -12.069829     -12.542911    
    157000   1722.7729     -12.121318     -12.56669     
    157500   1933.4512     -12.05519      -12.555026    
    158000   1671.3076     -12.027148     -12.459215    
    158500   2405.8625     -12.031192     -12.653157    
    159000   2423.6412     -12.046042     -12.672603    
    159500   2642.7364     -12.057436     -12.740637    
    160000   2886.926      -12.064556     -12.810885    
    160500   2946.5266     -12.069535     -12.831272    
    161000   3071.5444     -12.070716     -12.864772    
    161500   3042.878      -12.073714     -12.860359    
    162000   2870.9334     -12.076621     -12.818815    
    162500   2705.0843     -12.081183     -12.780502    
    163000   2688.6917     -12.084522     -12.779603    
    163500   2551.6609     -12.103631     -12.763287    
    164000   2372.8142     -12.202656     -12.816077    
    164500   1675.968      -12.074469     -12.507741    
    165000   2558.4185     -12.065981     -12.727384    
    165500   2420.225      -12.051288     -12.676965    
    166000   2418.8819     -12.050843     -12.676173    
    166500   2883.6731     -12.043398     -12.788886    
    167000   2062.1442     -12.048628     -12.581735    
    167500   2347.5        -12.105613     -12.712489    
    168000   3124.7346     -12.059139     -12.866946    
    168500   2428.9388     -12.076603     -12.704533    
    169000   3107.7138     -12.085176     -12.888583    
    169500   2642.9779     -12.090616     -12.77388     
    170000   2157.7826     -12.09974      -12.65757     
    170500   2104.3159     -12.332342     -12.87635     
    171000   3082.9235     -12.070063     -12.867061    
    171500   2896.0845     -12.056506     -12.805202    
    172000   2707.4101     -12.049725     -12.749645    
    172500   2644.1405     -12.044142     -12.727706    
    173000   2491.1203     -12.03895      -12.682955    
    173500   2438.964      -12.03504      -12.665562    
    174000   2267.1282     -12.031142     -12.617241    
    174500   1996.4515     -12.028256     -12.544379    
    175000   2105.4442     -12.02563      -12.56993     
    175500   2246.8097     -12.022546     -12.603391    
    176000   2311.6351     -12.020551     -12.618155    
    176500   2712.154      -12.002554     -12.703701    
    177000   3047.8897     -11.982244     -12.770185    
    177500   2647.7736     -11.993562     -12.678065    
    178000   2879.128      -12.004721     -12.749034    
    178500   2946.5439     -12.010411     -12.772153    
    179000   2709.0839     -12.011463     -12.711816    
    179500   2690.6083     -12.011375     -12.706952    
    180000   2565.3131     -12.008836     -12.672021    
    180500   2175.8743     -12.006754     -12.569262    
    181000   2271.9443     -12.005538     -12.592882    
    181500   2583.1777     -12.00278      -12.670584    
    182000   2586.2485     -12.000909     -12.669507    
    182500   2908.0417     -12.000839     -12.752627    
    183000   2962.7537     -12.001824     -12.767756    
    183500   3202.253      -11.960079     -12.787927    
    184000   3423.8869     -11.941617     -12.826762    
    184500   3401.6965     -11.932694     -12.812101    
    185000   2985.6242     -11.930446     -12.702291    
    185500   2852.7292     -11.933652     -12.67114     
    186000   2881.5532     -11.935681     -12.680621    
    186500   2795.7788     -11.934301     -12.657066    
    187000   2095.9573     -11.924225     -12.466073    
    187500   2197.9084     -11.896034     -12.464238    
    188000   2086.1891     -11.877742     -12.417064    
    188500   2906.5608     -11.884628     -12.636033    
    189000   2418.0236     -11.910309     -12.535417    
    189500   2408.8311     -11.926066     -12.548798    
    190000   2690.8997     -11.934766     -12.630418    
    190500   2787.2823     -11.940122     -12.660691    
    191000   2965.833      -11.944947     -12.711675    
    191500   3111.3427     -11.950427     -12.754772    
    192000   2985.3331     -11.959208     -12.730977    
    192500   3201.4062     -11.967349     -12.794977    
    193000   3127.4742     -11.971017     -12.779533    
    193500   3045.5256     -11.971806     -12.759136    
    194000   2867.5873     -11.97048      -12.711809    
    194500   2571.141      -11.968058     -12.63275     
    195000   2446.7761     -11.966506     -12.599047    
    195500   2717.8394     -11.963067     -12.665683    
    196000   2805.0584     -11.959819     -12.684984    
    196500   2074.6911     -12.12278      -12.65913     
    197000   3401.0854     -11.854068     -12.733318    
    197500   3229.81       -11.786595     -12.621567    
    198000   2846.7182     -11.74244      -12.478374    
    198500   2854.4362     -11.714485     -12.452415    
    199000   3381.2701     -11.696148     -12.570275    
    199500   3868.2043     -11.681304     -12.681313    
    200000   4042.1647     -11.671715     -12.716697    
Loop time of 23.4321 on 1 procs for 200000 steps with 3 atoms

Performance: 73.745 ns/day, 0.325 hours/ns, 8535.296 timesteps/s, 25.606 katom-step/s
4.2% CPU use with 1 MPI tasks x 1 OpenMP threads

MPI task timing breakdown:
Section |  min time  |  avg time  |  max time  |%varavg| %total
---------------------------------------------------------------
Pair    | 0.22772    | 0.22772    | 0.22772    |   0.0 |  0.97
Neigh   | 0.0086266  | 0.0086266  | 0.0086266  |   0.0 |  0.04
Comm    | 0.020031   | 0.020031   | 0.020031   |   0.0 |  0.09
Output  | 22.777     | 22.777     | 22.777     |   0.0 | 97.21
Modify  | 0.34209    | 0.34209    | 0.34209    |   0.0 |  1.46
Other   |            | 0.05634    |            |       |  0.24

Nlocal:              3 ave           3 max           3 min
Histogram: 1 0 0 0 0 0 0 0 0 0
Nghost:              0 ave           0 max           0 min
Histogram: 1 0 0 0 0 0 0 0 0 0
Neighs:              0 ave           0 max           0 min
Histogram: 1 0 0 0 0 0 0 0 0 0
FullNghs:            6 ave           6 max           6 min
Histogram: 1 0 0 0 0 0 0 0 0 0

Total # of neighbors = 6
Ave neighs/atom = 2
Neighbor list builds = 2356
Dangerous builds = 0
Total wall time: 0:00:23
