LAMMPS (7 Feb 2024 - Update 1)
OMP_NUM_THREADS environment is not set. Defaulting to 1 thread. (src/comm.cpp:98)
  using 1 OpenMP thread(s) per MPI task
#============Initialization=================
units 			metal
atom_style 		atomic
boundary 		f f f

#=========Simulation box definition=========
region 			bigbox block 0 10 0 10 0 10
create_box 		1 bigbox
Created orthogonal box = (0 0 0) to (10 10 10)
  1 by 1 by 1 MPI processor grid

#==================Atoms====================
region 			safezone block 1 9 1 9 1 9
create_atoms 	1 random 5 42780 safezone
Created 5 atoms
  using lattice units in orthogonal box = (0 0 0) to (10 10 10)
  create_atoms CPU = 0.000 seconds
labelmap 		atom 1 C
mass 			* 12.01

#==========Velocity initialization==========
velocity 		all create 1.0 12345 rot yes dist gaussian

#======Pair style for atom interactions=============
pair_style 		airebo 2.5
pair_coeff 		* * CH.airebo C
Reading airebo potential file CH.airebo with DATE: 2011-10-25

#==============Neighbor selection===================
neighbor 		0.3 bin
neigh_modify 	every 2 delay 10 check yes

#====Fixes for time integration and constraints=====
fix 			1 all nve
fix 			2 all temp/berendsen 300.0 3000.0 0.1

#==============Custom Wall force====================
#==========Wall with harmonic potential=============
variable        k equal 100.0

fix             xlo_wall all wall/harmonic xlo EDGE v_k 1.0 0.7
fix             xhi_wall all wall/harmonic xhi EDGE v_k 1.0 0.7
fix             ylo_wall all wall/harmonic ylo EDGE v_k 1.0 0.7
fix             yhi_wall all wall/harmonic yhi EDGE v_k 1.0 0.7
fix             zlo_wall all wall/harmonic zlo EDGE v_k 1.0 0.7
fix             zhi_wall all wall/harmonic zhi EDGE v_k 1.0 0.7

#=====================Timestep======================
timestep 		0.0001

#========System temperature printing info===========
thermo_style 	custom step temp etotal pe
thermo 			500

#===============Define dump command=================
dump 			1 all cfg 200 ./dump/dump.tensile_*.cfg mass type xs ys zs vx vy vz id

#================Run simulation=====================
run 			220000
Neighbor list info ...
  update: every = 2 steps, delay = 10 steps, check = yes
  max neighbors/atom: 2000, page size: 100000
  master list distance cutoff = 8.8
  ghost atom cutoff = 8.8
  binsize = 4.4, bins = 3 3 3
  1 neighbor lists, perpetual/occasional/extra = 1 0 0
  (1) pair airebo, perpetual
      attributes: full, newton on, ghost
      pair build: full/bin/ghost
      stencil: full/ghost/bin/3d
      bin: standard
Per MPI rank memory allocation (min/avg/max) = 3.854 | 3.854 | 3.854 Mbytes
   Step          Temp          TotEng         PotEng    
         0   1             -11.008107     -11.008624    
       500   2051.4141     -11.232264     -12.292928    
      1000   818.13026     -11.424756     -11.847763    
      1500   107.22774     -11.550232     -11.605673    
      2000   1403.5458     -11.667987     -12.393677    
      2500   1061.9496     -11.755169     -12.30424     
      3000   129.04938     -11.828094     -11.894818    
      3500   1043.7605     -11.879607     -12.419273    
      4000   947.2598      -11.921212     -12.410983    
      4500   167.90088     -11.952498     -12.03931     
      5000   435.64673     -11.979521     -12.204768    
      5500   588.65576     -11.99784      -12.302199    
      6000   575.42553     -12.003242     -12.300761    
      6500   469.69078     -12.014917     -12.257766    
      7000   85.078939     -12.025442     -12.069431    
      7500   291.15051     -12.035857     -12.186394    
      8000   378.1412      -12.043935     -12.239449    
      8500   547.73029     -12.044109     -12.327308    
      9000   531.70441     -12.046831     -12.321743    
      9500   261.41405     -12.046314     -12.181475    
     10000   218.27631     -12.048379     -12.161236    
     10500   339.65688     -12.053436     -12.229052    
     11000   614.50718     -12.06117      -12.378895    
     11500   628.52682     -12.066171     -12.391144    
     12000   632.13993     -12.066078     -12.39292     
     12500   600.83821     -12.067481     -12.378139    
     13000   8792.9648     -13.287824     -17.834143    
     13500   3684.8503     -14.517594     -16.422812    
     14000   5374.7943     -15.2894       -18.068386    
     14500   599.21329     -16.117017     -16.426834    
     15000   4310.6284     -16.590735     -18.819505    
     15500   2862.2704     -17.028014     -18.507924    
     16000   1716.5137     -17.313031     -18.200538    
     16500   1731.1667     -17.562097     -18.457181    
     17000   1725.1957     -17.780178     -18.672174    
     17500   983.15011     -17.928858     -18.437186    
     18000   1460.8809     -18.052692     -18.808027    
     18500   251.01743     -18.14769      -18.277476    
     19000   513.70707     -18.210027     -18.475634    
     19500   1240.7229     -18.27248      -18.913984    
     20000   475.43476     -18.31626      -18.562079    
     20500   498.18389     -18.347985     -18.605566    
     21000   686.61902     -18.371933     -18.726943    
     21500   719.11455     -18.383784     -18.755596    
     22000   531.86108     -18.39874      -18.673734    
     22500   471.0296      -18.401478     -18.645019    
     23000   995.2862      -18.416564     -18.931167    
     23500   61.132616     -18.416959     -18.448567    
     24000   808.83824     -18.40874      -18.826942    
     24500   655.60238     -18.41755      -18.756523    
     25000   692.54213     -18.41287      -18.770942    
     25500   342.93623     -18.416907     -18.594219    
     26000   700.36418     -18.403519     -18.765636    
     26500   577.30618     -18.401526     -18.700017    
     27000   380.45995     -18.400485     -18.597198    
     27500   956.33533     -18.401761     -18.896225    
     28000   463.77136     -18.39753      -18.637319    
     28500   351.53179     -18.384168     -18.565924    
     29000   842.53368     -18.383002     -18.818626    
     29500   920.93331     -18.382329     -18.858489    
     30000   483.28189     -18.384543     -18.634419    
     30500   445.03188     -18.370382     -18.600482    
     31000   675.32729     -18.368363     -18.717535    
     31500   602.60252     -18.357402     -18.668972    
     32000   640.27364     -18.356759     -18.687807    
     32500   828.04769     -18.355614     -18.783748    
     33000   633.26185     -18.358078     -18.6855      
     33500   273.76276     -18.341419     -18.482966    
     34000   944.43216     -18.341361     -18.829671    
     34500   972.25101     -18.334567     -18.83726     
     35000   665.07463     -18.342125     -18.685995    
     35500   571.5627      -18.334357     -18.629878    
     36000   743.90753     -18.326144     -18.710775    
     36500   637.96936     -18.317681     -18.647537    
     37000   713.76883     -18.318651     -18.687698    
     37500   891.07615     -18.322713     -18.783436    
     38000   753.62302     -18.317536     -18.707189    
     38500   667.16406     -18.29361      -18.638561    
     39000   435.03525     -18.278614     -18.503545    
     39500   947.29078     -18.265046     -18.754834    
     40000   896.05324     -18.259621     -18.722916    
     40500   958.7623      -18.258254     -18.753973    
     41000   643.13526     -18.25518      -18.587707    
     41500   618.64711     -18.241073     -18.560939    
     42000   719.12097     -18.232907     -18.604721    
     42500   857.27039     -18.222042     -18.665285    
     43000   736.71908     -18.2165       -18.597414    
     43500   841.28308     -18.220109     -18.655086    
     44000   952.93101     -18.210615     -18.703319    
     44500   727.53147     -18.212886     -18.589049    
     45000   700.38443     -18.199989     -18.562116    
     45500   489.09989     -18.188086     -18.440971    
     46000   984.71229     -18.184901     -18.694037    
     46500   959.3228      -18.175238     -18.671247    
     47000   1120.2198     -18.18503      -18.764229    
     47500   970.9458      -18.173613     -18.675631    
     48000   609.50985     -18.17473      -18.489872    
     48500   687.24047     -18.162979     -18.51831     
     49000   866.55688     -18.154328     -18.602374    
     49500   1043.5619     -18.147023     -18.686587    
     50000   860.24716     -18.145842     -18.590625    
     50500   1059.6714     -18.140416     -18.688309    
     51000   757.3139      -18.141387     -18.532949    
     51500   1041.0977     -18.134764     -18.673053    
     52000   822.62541     -18.13017      -18.5555      
     52500   967.13593     -18.123895     -18.623943    
     53000   778.59637     -18.111758     -18.514324    
     53500   869.26178     -18.110858     -18.560302    
     54000   1002.4894     -18.097209     -18.615537    
     54500   1034.0332     -18.102832     -18.637469    
     55000   1221.5649     -18.096651     -18.72825     
     55500   1071.3971     -18.09357      -18.647526    
     56000   844.70827     -18.091477     -18.528226    
     56500   842.32071     -18.078227     -18.513741    
     57000   737.83012     -18.075233     -18.456722    
     57500   1176.971      -18.064738     -18.67328     
     58000   991.58187     -18.061734     -18.574423    
     58500   1238.2065     -18.061981     -18.702184    
     59000   1050.0318     -18.05376      -18.596669    
     59500   944.01901     -18.058733     -18.546829    
     60000   923.27052     -18.044627     -18.521996    
     60500   855.59104     -18.04364      -18.486016    
     61000   1026.008      -18.03466      -18.565148    
     61500   1052.2353     -18.026405     -18.570453    
     62000   1044.6937     -18.025157     -18.565306    
     62500   1045.4699     -18.014977     -18.555527    
     63000   998.96179     -18.014585     -18.531089    
     63500   1064.4641     -18.008385     -18.558756    
     64000   1084.4075     -18.003462     -18.564145    
     64500   1119.7056     -18.000572     -18.579505    
     65000   1100.7066     -18.018981     -18.588091    
     65500   1086.6277     -17.988317     -18.550147    
     66000   1050.1589     -17.97615      -18.519124    
     66500   953.31634     -17.97421      -18.467113    
     67000   1083.4154     -17.967088     -18.527258    
     67500   1084.422      -17.961037     -18.521727    
     68000   1222.9817     -17.960256     -18.592588    
     68500   1209.1129     -17.95217      -18.577331    
     69000   1257.4402     -17.952364     -18.602511    
     69500   1179.6204     -17.944282     -18.554194    
     70000   1060.4888     -17.939658     -18.487973    
     70500   1056.7629     -17.934841     -18.48123     
     71000   1022.672      -17.923445     -18.452208    
     71500   1056.9494     -17.923376     -18.469862    
     72000   1231.9149     -17.911639     -18.548589    
     72500   1140.3745     -17.909234     -18.498854    
     73000   1397.634      -17.907013     -18.629646    
     73500   1233.3677     -17.896055     -18.533757    
     74000   1258.3617     -17.899885     -18.550509    
     74500   1229.6335     -17.886737     -18.522507    
     75000   1093.4088     -17.885958     -18.451295    
     75500   1116.9926     -17.875502     -18.453032    
     76000   1053.0424     -17.868425     -18.412891    
     76500   1150.9625     -17.866278     -18.461373    
     77000   1200.2805     -17.8551       -18.475693    
     77500   1226.182      -17.855646     -18.489632    
     78000   1384.422      -17.848604     -18.564406    
     78500   1321.2434     -17.842934     -18.52607     
     79000   1385.4602     -17.844631     -18.56097     
     79500   1358.2273     -17.832931     -18.53519     
     80000   1303.3628     -17.835333     -18.509224    
     80500   1300.2226     -17.823636     -18.495904    
     81000   1193.2724     -17.822175     -18.439146    
     81500   1245.5387     -17.813872     -18.457866    
     82000   1156.5949     -17.807311     -18.405317    
     82500   1236.6585     -17.805154     -18.444557    
     83000   1206.1026     -17.793192     -18.416796    
     83500   1238.4287     -17.794        -18.434317    
     84000   1310.2931     -17.785527     -18.463002    
     84500   1286.539      -17.776523     -18.441716    
     85000   1350.2629     -17.778382     -18.476522    
     85500   1416.7611     -17.765274     -18.497797    
     86000   1323.4356     -17.767866     -18.452136    
     86500   1500.8875     -17.758723     -18.534743    
     87000   1347.4203     -17.756344     -18.453015    
     87500   1463.6634     -17.752738     -18.509512    
     88000   1359.5112     -17.745117     -18.448039    
     88500   1440.7887     -17.745085     -18.490031    
     89000   1389.6509     -17.733103     -18.451609    
     89500   1366.3113     -17.734094     -18.440532    
     90000   1429.4295     -17.726439     -18.465512    
     90500   1350.8039     -17.719004     -18.417424    
     91000   1353.9541     -17.719536     -18.419585    
     91500   1416.4214     -17.707689     -18.440036    
     92000   1288.815      -17.707988     -18.374358    
     92500   1287.608      -17.770065     -18.43581     
     93000   1287.4606     -17.693339     -18.359009    
     93500   1429.9354     -17.691352     -18.430687    
     94000   1272.1474     -17.682414     -18.340166    
     94500   1396.0918     -17.686875     -18.408711    
     95000   1345.7075     -17.673509     -18.369294    
     95500   1315.3347     -17.673565     -18.353646    
     96000   1429.1825     -17.665029     -18.403974    
     96500   7920.7082     -18.640225     -22.735552    
     97000   5971.496      -19.836311     -22.923817    
     97500   3751.5932     -20.502169     -22.441895    
     98000   3488.3639     -21.219395     -23.02302     
     98500   1816.8088     -21.713934     -22.653298    
     99000   2596.4891     -22.069731     -23.412221    
     99500   2868.2293     -22.382804     -23.865795    
    100000   3313.7368     -22.603218     -24.316554    
    100500   2021.6519     -22.795532     -23.840808    
    101000   2753.9926     -22.944108     -24.368034    
    101500   2175.8584     -23.105912     -24.230919    
    102000   1147.9539     -23.143745     -23.737283    
    102500   2299.078      -23.224111     -24.412827    
    103000   1827.1854     -23.298588     -24.243317    
    103500   986.30019     -23.32086      -23.830817    
    104000   829.64789     -23.364044     -23.793006    
    104500   1728.1382     -23.360733     -24.254251    
    105000   1136.5511     -23.42164      -24.009283    
    105500   1670.641      -23.410684     -24.274473    
    106000   1226.5983     -23.435902     -24.070103    
    106500   1446.6648     -23.434517     -24.182502    
    107000   1895.4993     -23.446741     -24.426791    
    107500   1016.9596     -23.459734     -23.985543    
    108000   935.16063     -23.426044     -23.90956     
    108500   1893.4738     -23.445957     -24.42496     
    109000   2123.7438     -23.409957     -24.508018    
    109500   1601.2803     -23.413858     -24.241785    
    110000   1811.5519     -23.428147     -24.364792    
    110500   1494.3557     -23.434707     -24.20735     
    111000   1419.7417     -23.413912     -24.147976    
    111500   1518.6475     -23.398454     -24.183657    
    112000   2849.7101     -23.413193     -24.886608    
    112500   2207.1401     -23.386277     -24.527458    
    113000   1364.1166     -23.387949     -24.093253    
    113500   1907.8082     -23.374303     -24.360717    
    114000   1672.9579     -23.38388      -24.248867    
    114500   1003.9152     -23.365462     -23.884527    
    115000   1776.7034     -23.344097     -24.262725    
    115500   1148.3802     -23.379722     -23.973481    
    116000   2129.6238     -23.323592     -24.424694    
    116500   1598.927      -23.376849     -24.203559    
    117000   1809.5784     -23.287077     -24.222703    
    117500   2768.7613     -23.2954       -24.726962    
    118000   1435.4895     -23.302152     -24.044358    
    118500   1482.7896     -23.230674     -23.997336    
    119000   1504.3627     -23.288638     -24.066455    
    119500   609.11038     -23.273975     -23.58891     
    120000   2062.7458     -23.327502     -24.394026    
    120500   1457.0918     -23.305939     -24.059315    
    121000   1809.1064     -23.260835     -24.196216    
    121500   1973.4131     -23.26692      -24.287255    
    122000   1678.6751     -23.191821     -24.059764    
    122500   1897.1894     -23.27136      -24.252283    
    123000   1471.3889     -23.246626     -24.007394    
    123500   1090.2219     -23.310622     -23.87431     
    124000   1327.2425     -23.227854     -23.914092    
    124500   2883.036      -23.234822     -24.725468    
    125000   2027.3795     -23.254737     -24.302974    
    125500   1932.7832     -23.134643     -24.13397     
    126000   1894.2162     -23.235492     -24.214878    
    126500   1132.2704     -23.215458     -23.800888    
    127000   2583.202      -23.209414     -24.545034    
    127500   2104.0654     -23.223429     -24.311316    
    128000   2417.3601     -23.159896     -24.409769    
    128500   2005.5207     -23.208131     -24.245066    
    129000   1381.2995     -23.176544     -23.890732    
    129500   2083.929      -23.23162      -24.309096    
    130000   1553.2117     -23.184417     -23.987491    
    130500   2229.2937     -23.196118     -24.348753    
    131000   2421.9956     -23.229092     -24.481362    
    131500   2322.364      -23.212057     -24.412814    
    132000   2550.0265     -23.319224     -24.637691    
    132500   1621.8277     -23.332465     -24.171015    
    133000   1954.1938     -23.382955     -24.393352    
    133500   1818.7641     -23.403011     -24.343385    
    134000   1730.6058     -23.411168     -24.305962    
    134500   2262.5589     -23.4464       -24.616235    
    135000   1632.8384     -23.445294     -24.289538    
    135500   1971.7483     -23.472269     -24.491743    
    136000   1409.7871     -23.479009     -24.207927    
    136500   2082.2454     -23.475069     -24.551675    
    137000   2152.4517     -23.50202      -24.614925    
    137500   2293.2277     -23.460226     -24.645918    
    138000   2316.1796     -23.483905     -24.681464    
    138500   1477.6546     -23.455627     -24.219634    
    139000   2109.1094     -23.461433     -24.551928    
    139500   1867.2947     -23.438066     -24.403533    
    140000   1875.4895     -23.53179      -24.501494    
    140500   1749.0342     -23.456817     -24.361139    
    141000   2404.3908     -23.446953     -24.69012     
    141500   2700.4589     -23.490567     -24.886814    
    142000   2144.5581     -23.454291     -24.563115    
    142500   2422.9241     -23.472951     -24.725701    
    143000   1837.0674     -23.447606     -24.397445    
    143500   2174.1708     -23.470917     -24.595051    
    144000   2083.1444     -23.474851     -24.551921    
    144500   2167.8939     -23.49829      -24.619179    
    145000   2063.7625     -23.504525     -24.571574    
    145500   1889.0663     -23.49202      -24.468744    
    146000   1905.382      -23.503219     -24.488379    
    146500   1735.0135     -23.426029     -24.323102    
    147000   2645.6481     -23.378347     -24.746254    
    147500   1617.2736     -23.499325     -24.335521    
    148000   1802.4334     -23.342216     -24.274147    
    148500   2229.8984     -23.266851     -24.419799    
    149000   2036.7981     -23.244314     -24.297422    
    149500   2678.1147     -23.282054     -24.666748    
    150000   1840.6943     -23.354438     -24.306151    
    150500   2294.1108     -23.364331     -24.55048     
    151000   2001.9885     -23.389826     -24.424936    
    151500   2172.2755     -23.377609     -24.500764    
    152000   2008.4164     -23.411482     -24.449914    
    152500   2174.6932     -23.410388     -24.534793    
    153000   2146.9902     -23.413876     -24.523957    
    153500   2162.1656     -23.427376     -24.545303    
    154000   1888.9173     -23.408052     -24.384699    
    154500   2269.6032     -23.435558     -24.609035    
    155000   2014.9985     -23.386826     -24.428662    
    155500   2655.6875     -23.424533     -24.797632    
    156000   2101.2253     -23.483117     -24.569536    
    156500   2276.3067     -23.552821     -24.729764    
    157000   1958.681      -23.530852     -24.543569    
    157500   1530.1516     -23.473524     -24.264674    
    158000   2233.649      -23.435141     -24.590028    
    158500   1706.9191     -23.421059     -24.303606    
    159000   2237.8344     -23.377677     -24.534729    
    159500   2084.4933     -23.361475     -24.439243    
    160000   2430.1469     -23.323579     -24.580064    
    160500   2193.9981     -23.34621      -24.480596    
    161000   1796.4891     -23.304716     -24.233574    
    161500   1539.4509     -23.31128      -24.107238    
    162000   2450.0349     -23.267972     -24.534739    
    162500   2514.8752     -23.315743     -24.616036    
    163000   1721.0124     -23.332131     -24.221965    
    163500   2014.7634     -23.353518     -24.395232    
    164000   2468.8826     -23.350457     -24.626969    
    164500   2166.6843     -23.380702     -24.500966    
    165000   2780.766      -23.37088      -24.808649    
    165500   2058.1304     -23.405203     -24.46934     
    166000   2928.6295     -23.388019     -24.902239    
    166500   1982.9201     -23.416247     -24.441497    
    167000   2484.4972     -23.394162     -24.678748    
    167500   2344.4591     -23.414942     -24.627123    
    168000   2233.1632     -23.401008     -24.555644    
    168500   2379.2028     -23.408968     -24.639113    
    169000   2296.2173     -23.400462     -24.587699    
    169500   2473.5204     -23.398755     -24.677665    
    170000   2134.0032     -23.403083     -24.506449    
    170500   2479.2681     -23.381372     -24.663254    
    171000   2301.4556     -23.417665     -24.607611    
    171500   2436.244      -23.390321     -24.649958    
    172000   2600.4976     -23.431228     -24.77579     
    172500   2363.2853     -23.381353     -24.603268    
    173000   2751.6469     -23.325984     -24.748698    
    173500   2140.074      -23.182985     -24.28949     
    174000   2401.7855     -23.178982     -24.420802    
    174500   1487.0529     -23.09075      -23.859617    
    175000   2717.2584     -23.079222     -24.484155    
    175500   1980.2957     -23.060486     -24.084379    
    176000   2672.0131     -23.049228     -24.430767    
    176500   2566.4112     -23.033478     -24.360417    
    177000   1854.903      -23.013229     -23.972289    
    177500   2905.6694     -23.036775     -24.539124    
    178000   2818.5568     -23.076906     -24.534214    
    178500   3200.6114     -23.167673     -24.822519    
    179000   2043.2402     -23.204654     -24.261092    
    179500   3093.3927     -23.240274     -24.839683    
    180000   2006.3783     -23.263174     -24.300553    
    180500   1738.5628     -23.238822     -24.13773     
    181000   2732.9543     -23.155909     -24.568958    
    181500   3253.6638     -23.204138     -24.886414    
    182000   2540.8522     -23.200632     -24.514356    
    182500   3278.9681     -23.205847     -24.901207    
    183000   2495.7511     -23.242322     -24.532726    
    183500   2096.8384     -23.232384     -24.316535    
    184000   2316.3295     -23.261184     -24.45882     
    184500   2043.8718     -23.226527     -24.283292    
    185000   1860.0605     -23.204367     -24.166094    
    185500   2690.8827     -23.185319     -24.576614    
    186000   2050.3933     -23.195061     -24.255197    
    186500   2606.3029     -23.170181     -24.517745    
    187000   2521.8795     -23.198056     -24.50197     
    187500   2740.6193     -23.181172     -24.598184    
    188000   2919.7073     -23.20943      -24.719037    
    188500   2327.1251     -23.182462     -24.385681    
    189000   3166.8621     -23.205703     -24.843099    
    189500   3205.7251     -23.187945     -24.845435    
    190000   2378.9615     -23.204074     -24.434094    
    190500   2567.3496     -23.181334     -24.508758    
    191000   2568.8375     -23.268689     -24.596883    
    191500   2960.1444     -23.011369     -24.541884    
    192000   3533.0408     -23.01317      -24.839895    
    192500   1875.0619     -22.899415     -23.868898    
    193000   2370.9512     -22.842466     -24.068344    
    193500   2389.1848     -22.79107      -24.026376    
    194000   2087.5533     -22.714942     -23.794292    
    194500   1980.3134     -22.744499     -23.768401    
    195000   2399.6726     -22.617734     -23.858462    
    195500   2504.8072     -22.694414     -23.989501    
    196000   1610.2849     -22.650403     -23.482986    
    196500   2341.8924     -22.617984     -23.828837    
    197000   2415.8759     -22.702163     -23.951268    
    197500   2208.5956     -22.658496     -23.80043     
    198000   3753.9484     -22.686944     -24.627887    
    198500   2229.6285     -22.713736     -23.866544    
    199000   3162.431      -22.64142      -24.276526    
    199500   3523.702      -22.695807     -24.517704    
    200000   2312.1482     -22.654398     -23.849872    
    200500   2753.1048     -22.544003     -23.96747     
    201000   3641.294      -22.687383     -24.57008     
    201500   2027.2893     -22.533083     -23.581274    
    202000   2582.8219     -22.623844     -23.959267    
    202500   3148.9359     -22.578971     -24.207099    
    203000   3463.25       -22.599811     -24.390451    
    203500   2775.4355     -22.677778     -24.112791    
    204000   3608.5337     -22.696964     -24.562722    
    204500   2888.6637     -22.772237     -24.265793    
    205000   2191.0824     -22.772639     -23.905518    
    205500   3063.0995     -22.772244     -24.355991    
    206000   2513.9314     -22.789715     -24.08952     
    206500   2967.8597     -22.818111     -24.352615    
    207000   2978.1902     -22.846038     -24.385883    
    207500   2454.1994     -22.870768     -24.139689    
    208000   3137.734      -22.844603     -24.466939    
    208500   2744.5611     -22.949399     -24.368448    
    209000   2538.1221     -22.789537     -24.101849    
    209500   3476.7799     -22.800819     -24.598456    
    210000   2602.1269     -22.803306     -24.148711    
    210500   2645.7054     -22.810249     -24.178186    
    211000   2012.9884     -22.691048     -23.731845    
    211500   2728.9035     -22.692133     -24.103087    
    212000   1322.1991     -22.641931     -23.325561    
    212500   3217.6756     -22.609588     -24.273257    
    213000   2585.8137     -22.627169     -23.964139    
    213500   2800.9317     -22.566032     -24.014228    
    214000   2626.5716     -22.621772     -23.979816    
    214500   3249.2353     -22.554527     -24.234514    
    215000   3178.6608     -22.615411     -24.258907    
    215500   3032.9601     -22.520125     -24.088289    
    216000   4238.6024     -22.513122     -24.704652    
    216500   3361.2868     -22.564651     -24.302573    
    217000   2947.3008     -22.524268     -24.048142    
    217500   2606.9309     -22.581249     -23.929138    
    218000   2803.8981     -22.505346     -23.955075    
    218500   3771.1477     -22.579164     -24.529       
    219000   2903.4839     -22.544148     -24.045367    
    219500   3592.4684     -22.542825     -24.400277    
    220000   2779.9325     -22.580917     -24.018255    
Loop time of 8.43046 on 1 procs for 220000 steps with 5 atoms

Performance: 225.468 ns/day, 0.106 hours/ns, 26095.839 timesteps/s, 130.479 katom-step/s
13.8% CPU use with 1 MPI tasks x 1 OpenMP threads

MPI task timing breakdown:
Section |  min time  |  avg time  |  max time  |%varavg| %total
---------------------------------------------------------------
Pair    | 0.59037    | 0.59037    | 0.59037    |   0.0 |  7.00
Neigh   | 0.010837   | 0.010837   | 0.010837   |   0.0 |  0.13
Comm    | 0.022191   | 0.022191   | 0.022191   |   0.0 |  0.26
Output  | 7.3657     | 7.3657     | 7.3657     |   0.0 | 87.37
Modify  | 0.37181    | 0.37181    | 0.37181    |   0.0 |  4.41
Other   |            | 0.06951    |            |       |  0.82

Nlocal:              5 ave           5 max           5 min
Histogram: 1 0 0 0 0 0 0 0 0 0
Nghost:              0 ave           0 max           0 min
Histogram: 1 0 0 0 0 0 0 0 0 0
Neighs:              0 ave           0 max           0 min
Histogram: 1 0 0 0 0 0 0 0 0 0
FullNghs:           20 ave          20 max          20 min
Histogram: 1 0 0 0 0 0 0 0 0 0

Total # of neighbors = 20
Ave neighs/atom = 4
Neighbor list builds = 3108
Dangerous builds = 0
Total wall time: 0:00:08
