LAMMPS (7 Feb 2024 - Update 1)
OMP_NUM_THREADS environment is not set. Defaulting to 1 thread. (src/comm.cpp:98)
  using 1 OpenMP thread(s) per MPI task
#============Initialization=================
units 			metal
atom_style 		atomic
boundary 		p p p

############################################
#              CLI Variables               #
############################################
variable 		seed index 200093          #
variable 		N index 5                  #
variable 		iter index 1000000         #
variable 		iterther index 100000      #
variable 		iexport index 1000         #
variable 		tempchauf index 3000       #
variable 		Tdamp index 0.001          #
variable 		timestep index 0.0001      #
variable 		box_size index 10		   #
############################################
############################################
#=========Simulation box definition=========
lattice 		sc 1.0
Lattice spacing in x,y,z = 1 1 1
region 			bigbox block 0 ${box_size} 0 ${box_size} 0 ${box_size}
region 			bigbox block 0 10 0 ${box_size} 0 ${box_size}
region 			bigbox block 0 10 0 10 0 ${box_size}
region 			bigbox block 0 10 0 10 0 10
create_box 		1 bigbox
Created orthogonal box = (0 0 0) to (10 10 10)
  1 by 1 by 1 MPI processor grid

#==================Atoms====================
region 			safezone block 6 9 6 9 6 9 units box
create_atoms 	1 random ${N} ${seed} safezone
create_atoms 	1 random 5 ${seed} safezone
create_atoms 	1 random 5 200093 safezone
Created 5 atoms
  using lattice units in orthogonal box = (0 0 0) to (10 10 10)
  create_atoms CPU = 0.000 seconds
labelmap 		atom 1 C
mass 			* 12.01



#==========Velocity initialization==========
velocity 		all create 0.0000001 1563967 rot yes dist gaussian

#======Pair style for atom interactions=============
pair_style 		airebo 1.8 1 1
pair_coeff 		* * CH.airebo C
Reading airebo potential file CH.airebo with DATE: 2011-10-25

#==============Neighbor selection===================
neighbor 		0.3 bin
neigh_modify 	every 1 delay 0 check yes



#==============Custom Wall force====================
#==========Wall with harmonic potential=============
#variable       k equal 10.0

#fix             xlo_wall all wall/harmonic xlo EDGE v_k 1.0 0.7
#fix             xhi_wall all wall/harmonic xhi EDGE v_k 1.0 0.7
#fix             ylo_wall all wall/harmonic ylo EDGE v_k 1.0 0.7
#fix             yhi_wall all wall/harmonic yhi EDGE v_k 1.0 0.7
#fix             zlo_wall all wall/harmonic zlo EDGE v_k 1.0 0.7
#fix             zhi_wall all wall/harmonic zhi EDGE v_k 1.0 0.7



#=====================Timestep======================
timestep 		${timestep}
timestep 		0.0001

#===============Define dump command=================
dump 			1 all cfg 100000 ./dump/dump.tensile_*.cfg mass type xs ys zs vx vy vz id

#========System temperature printing info===========
thermo_style 	custom step temp etotal epair pe ke
thermo 			${iexport}	# 1'000'000
thermo 			1000	



#====================CRC Cycle======================

#=============Condensation et chauffe===============

# Minimize during the heating phase
#min_style       sd
#minimize        1.0e-5 1.0e-7 500 1000

fix 			1 all nve
fix 			2 all temp/berendsen 0.0 ${tempchauf} ${Tdamp}
fix 			2 all temp/berendsen 0.0 3000 ${Tdamp}
fix 			2 all temp/berendsen 0.0 3000 0.001
fix             3 all momentum 1 linear 1 1 1 angular rescale

run 			${iter}
run 			1000000
Neighbor list info ...
  update: every = 1 steps, delay = 0 steps, check = yes
  max neighbors/atom: 2000, page size: 100000
  master list distance cutoff = 8.116371
  ghost atom cutoff = 8.116371
  binsize = 4.0581855, bins = 3 3 3
  1 neighbor lists, perpetual/occasional/extra = 1 0 0
  (1) pair airebo, perpetual
      attributes: full, newton on, ghost
      pair build: full/bin/ghost
      stencil: full/ghost/bin/3d
      bin: standard
Per MPI rank memory allocation (min/avg/max) = 3.878 | 3.878 | 3.878 Mbytes
   Step          Temp          TotEng         E_pair         PotEng         KinEng    
         0   1e-07         -2.1395266     -2.1395266     -2.1395266      5.1704058e-11
      1000   58.495787     -20.200007     -20.230252     -20.230252      0.030244696  
      2000   20.269564     -22.57153      -22.58201      -22.58201       0.010480187  
      3000   16.625825     -23.17657      -23.185166     -23.185166      0.0085962263 
      4000   13.738096     -23.446842     -23.453945     -23.453945      0.0071031531 
      5000   14.702692     -23.418017     -23.425619     -23.425619      0.0076018886 
      6000   19.987966     -23.445043     -23.455378     -23.455378      0.01033459   
      7000   19.901146     -23.437185     -23.447475     -23.447475      0.0102897    
      8000   23.678551     -23.437872     -23.450114     -23.450114      0.012242772  
      9000   25.054744     -23.433411     -23.446365     -23.446365      0.012954319  
     10000   30.211812     -23.409285     -23.424905     -23.424905      0.015620733  
     11000   31.256983     -23.429772     -23.445933     -23.445933      0.016161128  
     12000   35.034377     -23.429809     -23.447923     -23.447923      0.018114195  
     13000   40.375857     -23.427767     -23.448643     -23.448643      0.020875956  
     14000   42.548165     -23.419214     -23.441213     -23.441213      0.021999128  
     15000   43.30898      -23.40749      -23.429883     -23.429883      0.0223925    
     16000   48.993035     -23.409271     -23.434603     -23.434603      0.025331387  
     17000   52.302195     -23.374442     -23.401485     -23.401485      0.027042357  
     18000   53.65919      -23.390547     -23.418291     -23.418291      0.027743979  
     19000   46.832763     -23.382594     -23.406809     -23.406809      0.024214439  
     20000   56.118988     -23.406323     -23.435339     -23.435339      0.029015794  
     21000   66.568454     -23.403845     -23.438264     -23.438264      0.034418592  
     22000   63.985388     -23.390651     -23.423734     -23.423734      0.033083042  
     23000   65.389879     -23.383043     -23.416852     -23.416852      0.033809221  
     24000   72.791283     -23.373113     -23.410749     -23.410749      0.037636047  
     25000   75.055905     -23.369299     -23.408106     -23.408106      0.038806949  
     26000   81.671999     -23.34549      -23.387718     -23.387718      0.042227738  
     27000   85.206625     -23.372256     -23.416312     -23.416312      0.044055283  
     28000   76.117959     -23.374252     -23.413608     -23.413608      0.039356074  
     29000   92.561466     -23.393511     -23.441369     -23.441369      0.047858034  
     30000   87.119266     -23.382599     -23.427643     -23.427643      0.045044196  
     31000   85.076506     -23.360324     -23.404312     -23.404312      0.043988006  
     32000   95.866206     -23.337227     -23.386794     -23.386794      0.049566719  
     33000   100.35476     -23.345254     -23.397141     -23.397141      0.051887483  
     34000   98.574877     -23.335947     -23.386914     -23.386914      0.050967212  
     35000   97.058888     -23.339638     -23.389822     -23.389822      0.050183384  
     36000   116.78092     -23.323026     -23.383407     -23.383407      0.060380474  
     37000   129.96703     -23.364924     -23.432122     -23.432122      0.067198228  
     38000   117.93285     -23.332825     -23.393802     -23.393802      0.06097607   
     39000   112.3113      -23.353396     -23.411466     -23.411466      0.058069501  
     40000   121.46728     -23.362362     -23.425165     -23.425165      0.062803514  
     41000   115.11662     -23.34062      -23.40014      -23.40014       0.059519962  
     42000   130.96191     -23.298712     -23.366425     -23.366425      0.067712621  
     43000   115.11025     -23.289026     -23.348543     -23.348543      0.059516671  
     44000   128.75907     -23.316348     -23.382922     -23.382922      0.066573666  
     45000   136.26434     -23.2736       -23.344054     -23.344054      0.070454193  
     46000   142.16496     -23.332935     -23.40644      -23.40644       0.073505054  
     47000   144.26049     -23.194221     -23.26881      -23.26881       0.074588528  
     48000   123.76619     -23.329536     -23.393528     -23.393528      0.063992142  
     49000   172.76933     -23.305878     -23.395207     -23.395207      0.089328754  
     50000   153.44328     -23.29507      -23.374407     -23.374407      0.079336401  
     51000   149.91702     -23.317113     -23.394626     -23.394626      0.077513184  
     52000   181.38037     -23.253557     -23.347338     -23.347338      0.093781014  
     53000   169.65628     -23.25091      -23.338629     -23.338629      0.087719182  
     54000   174.2173      -23.320112     -23.41019      -23.41019       0.090077416  
     55000   168.44958     -23.278116     -23.365212     -23.365212      0.087095269  
     56000   191.1053      -23.256245     -23.355054     -23.355054      0.098809195  
     57000   187.34876     -23.244171     -23.341038     -23.341038      0.09686691   
     58000   173.4215      -23.213726     -23.303392     -23.303392      0.089665954  
     59000   162.84709     -23.1867       -23.270898     -23.270898      0.084198556  
     60000   151.21992     -23.20439      -23.282577     -23.282577      0.078186837  
     61000   160.30979     -23.202772     -23.285658     -23.285658      0.082886668  
     62000   195.89117     -23.28011      -23.381394     -23.381394      0.10128368   
     63000   182.23112     -23.195358     -23.289579     -23.289579      0.094220885  
     64000   203.87917     -23.253153     -23.358567     -23.358567      0.1054138    
     65000   176.35278     -23.233371     -23.324552     -23.324552      0.091181541  
     66000   214.49608     -23.278301     -23.389204     -23.389204      0.11090318   
     67000   187.5515      -23.244618     -23.34159      -23.34159       0.096971736  
     68000   209.32419     -23.274371     -23.3826       -23.3826        0.1082291    
     69000   212.29239     -23.201832     -23.311596     -23.311596      0.10976378   
     70000   225.9137      -23.053468     -23.170275     -23.170275      0.11680655   
     71000   203.0773      -23.184287     -23.289286     -23.289286      0.10499921   
     72000   252.64405     -23.132491     -23.263118     -23.263118      0.13062723   
     73000   223.92297     -23.207552     -23.323329     -23.323329      0.11577726   
     74000   228.07307     -23.223941     -23.341865     -23.341865      0.11792303   
     75000   250.55704     -23.165732     -23.29528      -23.29528       0.12954816   
     76000   239.76862     -23.206081     -23.330052     -23.330052      0.12397011   
     77000   230.1011      -23.222972     -23.341944     -23.341944      0.11897161   
     78000   209.76223     -23.168406     -23.276862     -23.276862      0.10845558   
     79000   233.80543     -23.124597     -23.245484     -23.245484      0.1208869    
     80000   259.32575     -23.104325     -23.238406     -23.238406      0.13408193   
     81000   221.71965     -23.107751     -23.222389     -23.222389      0.11463805   
     82000   256.19976     -23.225553     -23.358019     -23.358019      0.13246567   
     83000   299.99854     -23.145101     -23.300213     -23.300213      0.15511142   
     84000   219.48868     -23.210155     -23.323639     -23.323639      0.11348456   
     85000   248.85844     -23.208298     -23.336967     -23.336967      0.12866991   
     86000   275.97301     -23.247708     -23.390397     -23.390397      0.14268924   
     87000   250.93349     -23.26209      -23.391832     -23.391832      0.1297428    
     88000   240.84629     -23.244823     -23.36935      -23.36935       0.12452731   
     89000   220.32811     -23.200344     -23.314262     -23.314262      0.11391857   
     90000   351.68758     -23.048844     -23.23068      -23.23068       0.18183675   
     91000   292.8622      -23.146125     -23.297547     -23.297547      0.15142164   
     92000   273.24189     -23.213309     -23.354586     -23.354586      0.14127715   
     93000   255.15244     -23.156121     -23.288045     -23.288045      0.13192416   
     94000   304.65852     -23.180869     -23.338389     -23.338389      0.15752082   
     95000   306.31859     -23.141218     -23.299597     -23.299597      0.15837914   
     96000   288.2688      -23.136154     -23.285201     -23.285201      0.14904667   
     97000   298.49143     -23.0803       -23.234632     -23.234632      0.15433218   
     98000   313.35927     -23.154546     -23.316565     -23.316565      0.16201946   
     99000   289.50079     -23.08098      -23.230663     -23.230663      0.14968366   
    100000   283.06196     -23.086058     -23.232412     -23.232412      0.14635452   
    101000   280.78632     -23.161253     -23.306431     -23.306431      0.14517792   
    102000   342.61927     -23.08113      -23.258278     -23.258278      0.17714806   
    103000   271.14295     -23.161275     -23.301467     -23.301467      0.14019191   
    104000   328.06219     -23.129466     -23.299088     -23.299088      0.16962146   
    105000   324.47342     -23.045256     -23.213022     -23.213022      0.16776592   
    106000   287.42335     -23.079603     -23.228213     -23.228213      0.14860954   
    107000   347.37936     -23.111869     -23.291478     -23.291478      0.17960922   
    108000   325.72441     -23.131118     -23.299531     -23.299531      0.16841274   
    109000   313.17315     -23.090182     -23.252106     -23.252106      0.16192323   
    110000   339.08652     -23.107163     -23.282485     -23.282485      0.17532149   
    111000   359.65369     -23.143117     -23.329073     -23.329073      0.18595555   
    112000   307.50012     -23.134473     -23.293463     -23.293463      0.15899004   
    113000   292.09888     -23.144082     -23.295109     -23.295109      0.15102698   
    114000   419.99825     -22.92355      -23.140706     -23.140706      0.21715614   
    115000   356.43179     -23.152216     -23.336506     -23.336506      0.1842897    
    116000   346.80536     -22.809444     -22.988757     -22.988757      0.17931244   
    117000   372.20963     -23.053203     -23.24565      -23.24565       0.19244748   
    118000   336.53328     -23.05364      -23.227642     -23.227642      0.17400136   
    119000   349.46152     -23.063602     -23.244288     -23.244288      0.18068579   
    120000   357.74787     -22.986517     -23.171487     -23.171487      0.18497017   
    121000   372.23409     -23.145284     -23.337744     -23.337744      0.19246013   
    122000   348.54114     -22.927097     -23.107307     -23.107307      0.18020991   
    123000   334.42047     -22.928796     -23.101705     -23.101705      0.17290895   
    124000   360.02285     -23.013478     -23.199624     -23.199624      0.18614642   
    125000   396.63317     -23.119032     -23.324107     -23.324107      0.20507545   
    126000   359.39076     -22.827188     -23.013007     -23.013007      0.18581961   
    127000   409.39775     -23.146806     -23.358481     -23.358481      0.21167525   
    128000   312.10728     -22.958858     -23.12023      -23.12023       0.16137213   
    129000   450.53227     -23.106906     -23.339849     -23.339849      0.23294347   
    130000   376.06058     -22.960602     -23.155041     -23.155041      0.19443858   
    131000   400.97676     -23.012209     -23.21953      -23.21953       0.20732126   
    132000   443.05262     -22.969575     -23.198651     -23.198651      0.22907618   
    133000   397.48632     -23.005264     -23.210781     -23.210781      0.20551656   
    134000   430.99666     -23.060809     -23.283652     -23.283652      0.22284276   
    135000   364.37594     -23.060431     -23.248828     -23.248828      0.18839715   
    136000   424.44981     -22.93437      -23.153827     -23.153827      0.21945778   
    137000   500.22133     -22.926572     -23.185207     -23.185207      0.25863473   
    138000   472.95118     -23.11731      -23.361845     -23.361845      0.24453495   
    139000   435.60243     -23.101395     -23.326619     -23.326619      0.22522413   
    140000   416.75306     -22.94571      -23.161188     -23.161188      0.21547825   
    141000   417.49981     -23.066742     -23.282607     -23.282607      0.21586435   
    142000   435.37721     -22.805125     -23.030232     -23.030232      0.22510769   
    143000   451.78147     -23.070088     -23.303677     -23.303677      0.23358935   
    144000   386.11684     -23.04732      -23.246958     -23.246958      0.19963808   
    145000   400.38205     -22.834891     -23.041905     -23.041905      0.20701377   
    146000   387.10581     -23.096201     -23.29635      -23.29635       0.20014941   
    147000   423.75055     -23.02611      -23.245207     -23.245207      0.21909623   
    148000   380.94985     -23.008458     -23.205425     -23.205425      0.19696653   
    149000   361.64297     -22.869768     -23.056752     -23.056752      0.18698409   
    150000   469.43986     -22.987582     -23.230302     -23.230302      0.24271946   
    151000   475.08308     -22.95243      -23.198068     -23.198068      0.24563723   
    152000   449.19762     -22.945673     -23.177926     -23.177926      0.2322534    
    153000   419.4542      -22.915974     -23.132849     -23.132849      0.21687484   
    154000   435.85636     -22.973333     -23.198688     -23.198688      0.22535542   
    155000   414.44421     -22.800123     -23.014407     -23.014407      0.21428447   
    156000   465.91928     -22.590443     -22.831342     -22.831342      0.24089917   
    157000   446.91541     -23.020295     -23.251368     -23.251368      0.2310734    
    158000   459.51742     -23.072088     -23.309678     -23.309678      0.23758915   
    159000   454.3458      -23.014879     -23.249795     -23.249795      0.23491522   
    160000   466.12283     -23.047425     -23.28843      -23.28843       0.24100442   
    161000   459.92165     -22.835656     -23.073454     -23.073454      0.23779816   
    162000   481.80044     -22.857949     -23.107059     -23.107059      0.24911038   
    163000   509.26542     -22.833461     -23.096772     -23.096772      0.26331089   
    164000   480.27833     -22.996817     -23.24514      -23.24514       0.24832338   
    165000   566.48798     -22.546943     -22.83984      -22.83984       0.29289727   
    166000   541.94814     -22.923107     -23.203317     -23.203317      0.28020918   
    167000   568.33535     -23.106342     -23.400195     -23.400195      0.29385244   
    168000   466.47784     -22.809602     -23.05079      -23.05079       0.24118797   
    169000   524.37515     -23.032048     -23.303171     -23.303171      0.27112323   
    170000   509.61338     -22.699933     -22.963424     -22.963424      0.26349079   
    171000   458.48495     -22.991043     -23.228099     -23.228099      0.23705532   
    172000   494.81291     -22.96058      -23.216419     -23.216419      0.25583835   
    173000   555.51033     -22.862658     -23.149879     -23.149879      0.28722138   
    174000   517.16066     -22.78791      -23.055303     -23.055303      0.26739305   
    175000   478.02186     -22.758075     -23.005232     -23.005232      0.2471567    
    176000   482.64243     -22.922318     -23.171864     -23.171864      0.24954572   
    177000   528.24443     -22.89084      -23.163964     -23.163964      0.27312381   
    178000   509.29466     -22.935939     -23.199265     -23.199265      0.263326     
    179000   447.924       -22.352185     -22.58378      -22.58378       0.23159488   
    180000   517.34892     -22.861096     -23.128586     -23.128586      0.26749039   
    181000   598.4563      -22.909362     -23.218788     -23.218788      0.30942619   
    182000   627.30157     -22.943738     -23.268078     -23.268078      0.32434037   
    183000   539.34918     -22.860331     -23.139196     -23.139196      0.27886541   
    184000   551.37176     -22.708289     -22.993371     -22.993371      0.28508157   
    185000   600.01316     -22.514065     -22.824296     -22.824296      0.31023115   
    186000   577.36957     -23.022964     -23.321488     -23.321488      0.2985235    
    187000   556.70507     -22.686315     -22.974154     -22.974154      0.28783911   
    188000   642.68378     -22.290908     -22.623202     -22.623202      0.33229359   
    189000   611.48469     -22.958136     -23.274298     -23.274298      0.3161624    
    190000   575.44472     -22.718706     -23.016234     -23.016234      0.29752827   
    191000   537.78449     -22.67901      -22.957066     -22.957066      0.2780564    
    192000   631.18792     -22.906436     -23.232786     -23.232786      0.32634977   
    193000   555.27698     -23.046819     -23.33392      -23.33392       0.28710073   
    194000   552.9515      -22.798046     -23.083944     -23.083944      0.28589836   
    195000   474.21181     -22.190379     -22.435566     -22.435566      0.24518675   
    196000   636.4316      -22.860092     -23.189153     -23.189153      0.32906097   
    197000   604.04638     -22.907975     -23.220291     -23.220291      0.31231649   
    198000   463.54907     -22.672169     -22.911842     -22.911842      0.23967368   
    199000   577.99264     -23.003294     -23.30214      -23.30214       0.29884565   
    200000   597.7116      -22.842995     -23.152036     -23.152036      0.30904115   
    201000   612.93799     -22.851878     -23.168791     -23.168791      0.31691382   
    202000   557.29949     -22.730093     -23.018239     -23.018239      0.28814645   
    203000   643.30674     -22.714935     -23.04755      -23.04755       0.33261569   
    204000   688.67804     -22.724609     -23.080683     -23.080683      0.35607449   
    205000   595.15699     -22.593888     -22.901608     -22.901608      0.30772031   
    206000   533.86705     -22.45895      -22.734981     -22.734981      0.27603093   
    207000   579.95269     -22.316322     -22.616181     -22.616181      0.29985907   
    208000   636.40117     -22.763073     -23.092118     -23.092118      0.32904523   
    209000   689.78324     -22.421944     -22.77859      -22.77859       0.35664593   
    210000   690.48848     -22.85633      -23.21334      -23.21334       0.35701056   
    211000   657.41458     -22.380622     -22.720532     -22.720532      0.33991002   
    212000   637.87279     -22.366402     -22.696208     -22.696208      0.32980612   
    213000   713.26078     -22.708898     -23.077683     -23.077683      0.36878477   
    214000   696.68885     -22.886039     -23.246256     -23.246256      0.36021641   
    215000   571.65826     -22.571337     -22.866908     -22.866908      0.29557052   
    216000   636.80643     -22.542564     -22.871818     -22.871818      0.32925477   
    217000   677.15507     -22.764557     -23.114674     -23.114674      0.35011665   
    218000   716.66539     -22.780797     -23.151342     -23.151342      0.37054509   
    219000   626.85433     -22.706838     -23.030947     -23.030947      0.32410913   
    220000   677.13479     -22.765985     -23.116091     -23.116091      0.35010616   
    221000   618.47168     -22.472266     -22.792041     -22.792041      0.31977496   
    222000   678.34998     -22.791386     -23.14212      -23.14212       0.35073447   
    223000   569.91061     -22.697349     -22.992016     -22.992016      0.29466691   
    224000   738.03869     -22.711041     -23.092637     -23.092637      0.38159595   
    225000   675.21721     -22.598678     -22.947793     -22.947793      0.3491147    
    226000   654.83427     -22.969076     -23.307652     -23.307652      0.33857589   
    227000   638.7621      -22.765194     -23.09546      -23.09546       0.33026593   
    228000   690.61664     -22.820862     -23.177938     -23.177938      0.35707683   
    229000   667.50973     -22.572917     -22.918047     -22.918047      0.34512962   
    230000   721.97353     -22.632771     -23.006061     -23.006061      0.37328961   
    231000   689.30751     -23.009456     -23.365856     -23.365856      0.35639995   
    232000   727.36677     -22.662721     -23.038799     -23.038799      0.37607814   
    233000   707.71846     -22.851986     -23.217905     -23.217905      0.36591916   
    234000   767.53019     -22.632213     -23.029057     -23.029057      0.39684425   
    235000   612.89251     -22.517749     -22.83464      -22.83464       0.3168903    
    236000   861.19621     -22.633937     -23.07921      -23.07921       0.44527339   
    237000   683.79238     -22.781985     -23.135534     -23.135534      0.35354841   
    238000   718.9117      -22.781212     -23.152919     -23.152919      0.37170652   
    239000   786.0539      -22.721611     -23.128033     -23.128033      0.40642176   
    240000   720.49677     -22.665549     -23.038075     -23.038075      0.37252607   
    241000   675.98621     -22.688781     -23.038294     -23.038294      0.3495123    
    242000   661.38675     -22.762838     -23.104802     -23.104802      0.34196379   
    243000   745.59821     -22.706376     -23.091881     -23.091881      0.38550453   
    244000   723.92345     -22.572851     -22.947149     -22.947149      0.3742978    
    245000   726.49027     -22.917734     -23.293359     -23.293359      0.37562495   
    246000   726.54813     -22.614831     -22.990486     -22.990486      0.37565486   
    247000   812.52003     -22.890645     -23.310751     -23.310751      0.42010583   
    248000   751.93806     -22.723359     -23.112142     -23.112142      0.38878249   
    249000   772.16616     -22.700637     -23.099879     -23.099879      0.39924124   
    250000   746.859       -22.943084     -23.32924      -23.32924       0.38615641   
    251000   714.64966     -22.801141     -23.170644     -23.170644      0.36950287   
    252000   782.54509     -22.484234     -22.888842     -22.888842      0.40460757   
    253000   697.28527     -22.661627     -23.022152     -23.022152      0.36052478   
    254000   830.08602     -22.696283     -23.125471     -23.125471      0.42918816   
    255000   706.29236     -22.267698     -22.63288      -22.63288       0.36518181   
    256000   765.65987     -22.586764     -22.982641     -22.982641      0.39587722   
    257000   800.29841     -22.850206     -23.263992     -23.263992      0.41378675   
    258000   816.66196     -22.713793     -23.136041     -23.136041      0.42224737   
    259000   763.34806     -22.557707     -22.952389     -22.952389      0.39468193   
    260000   704.34862     -22.570122     -22.934299     -22.934299      0.36417682   
    261000   864.62215     -22.17599      -22.623034     -22.623034      0.44704474   
    262000   814.19503     -22.66349      -23.084462     -23.084462      0.42097187   
    263000   639.01519     -22.648174     -22.978571     -22.978571      0.33039678   
    264000   818.17178     -22.554566     -22.977594     -22.977594      0.42302801   
    265000   732.33044     -22.490266     -22.86891      -22.86891       0.37864455   
    266000   845.62353     -22.311004     -22.748226     -22.748226      0.43722168   
    267000   770.05767     -22.476695     -22.874846     -22.874846      0.39815106   
    268000   876.2838      -22.575131     -23.028206     -23.028206      0.45307429   
    269000   871.31118     -22.847433     -23.297936     -23.297936      0.45050324   
    270000   794.14315     -22.66191      -23.072514     -23.072514      0.41060424   
    271000   748.41269     -22.416496     -22.803455     -22.803455      0.38695973   
    272000   815.00545     -22.70553      -23.126921     -23.126921      0.42139089   
    273000   782.53227     -22.480157     -22.884758     -22.884758      0.40460094   
    274000   885.57536     -22.862297     -23.320176     -23.320176      0.4578784    
    275000   788.60963     -22.276932     -22.684676     -22.684676      0.40774318   
    276000   839.24221     -22.399757     -22.833679     -22.833679      0.43392228   
    277000   845.53694     -22.582744     -23.019921     -23.019921      0.43717691   
    278000   942.84579     -22.326606     -22.814095     -22.814095      0.48748954   
    279000   841.21136     -22.542838     -22.977778     -22.977778      0.43494041   
    280000   810.14        -22.554785     -22.97366      -22.97366       0.41887526   
    281000   813.73936     -22.620569     -23.041305     -23.041305      0.42073627   
    282000   815.29958     -22.703209     -23.124751     -23.124751      0.42154297   
    283000   751.68507     -22.730514     -23.119165     -23.119165      0.38865168   
    284000   799.95868     -22.15664      -22.570251     -22.570251      0.4136111    
    285000   922.58131     -22.27656      -22.753572     -22.753572      0.47701198   
    286000   777.71906     -22.484644     -22.886756     -22.886756      0.40211231   
    287000   826.39999     -22.34475      -22.772032     -22.772032      0.42728233   
    288000   789.47063     -22.193126     -22.601314     -22.601314      0.40818835   
    289000   936.37218     -22.424137     -22.90828      -22.90828       0.48414242   
    290000   916.81987     -22.373129     -22.847162     -22.847162      0.47403308   
    291000   871.01949     -22.307422     -22.757774     -22.757774      0.45035242   
    292000   860.04604     -22.783471     -23.22815      -23.22815       0.44467871   
    293000   865.05923     -22.375157     -22.822428     -22.822428      0.44727072   
    294000   979.27626     -22.696155     -23.202481     -23.202481      0.50632557   
    295000   911.2252      -22.413963     -22.885103     -22.885103      0.47114041   
    296000   875.77016     -22.39178      -22.844588     -22.844588      0.45280871   
    297000   882.62617     -22.568875     -23.025228     -23.025228      0.45635355   
    298000   895.27593     -22.54649      -23.009384     -23.009384      0.46289399   
    299000   871.82307     -22.663139     -23.113907     -23.113907      0.45076791   
    300000   869.12013     -22.495174     -22.944544     -22.944544      0.44937038   
    301000   934.48411     -22.467056     -22.950223     -22.950223      0.48316621   
    302000   908.26313     -22.375418     -22.845027     -22.845027      0.4696089    
    303000   897.95189     -22.564786     -23.029064     -23.029064      0.46427757   
    304000   1014.9681     -22.228306     -22.753085     -22.753085      0.52477967   
    305000   910.7552      -22.594773     -23.06567      -23.06567       0.4708974    
    306000   942.8315      -22.246734     -22.734216     -22.734216      0.48748215   
    307000   993.56756     -22.637491     -23.151206     -23.151206      0.51371475   
    308000   938.02289     -22.486601     -22.971597     -22.971597      0.4849959    
    309000   959.7778      -22.377083     -22.873327     -22.873327      0.49624407   
    310000   984.77369     -22.505483     -23.014651     -23.014651      0.50916796   
    311000   911.13074     -22.49928      -22.970371     -22.970371      0.47109157   
    312000   973.5819      -22.378743     -22.882125     -22.882125      0.50338135   
    313000   901.45118     -22.423152     -22.889239     -22.889239      0.46608684   
    314000   959.47996     -22.427311     -22.923401     -22.923401      0.49609008   
    315000   910.48715     -22.448235     -22.918994     -22.918994      0.4707588    
    316000   981.1791      -22.373593     -22.880903     -22.880903      0.50730941   
    317000   944.08529     -22.425637     -22.913767     -22.913767      0.4881304    
    318000   985.21453     -22.309624     -22.81902      -22.81902       0.50939589   
    319000   948.58981     -22.423002     -22.913462     -22.913462      0.49045943   
    320000   955.82394     -22.310839     -22.805039     -22.805039      0.49419976   
    321000   947.55836     -22.457052     -22.946978     -22.946978      0.48992612   
    322000   970.57113     -22.40028      -22.902104     -22.902104      0.50182466   
    323000   960.06918     -22.497332     -22.993727     -22.993727      0.49639473   
    324000   958.2201      -22.444392     -22.93983      -22.93983       0.49543868   
    325000   944.69223     -22.446833     -22.935277     -22.935277      0.48844422   
    326000   971.43861     -22.446703     -22.948977     -22.948977      0.50227318   
    327000   962.30261     -22.329717     -22.827266     -22.827266      0.4975495    
    328000   985.60275     -22.498623     -23.00822      -23.00822       0.50959662   
    329000   982.36935     -22.283629     -22.791554     -22.791554      0.50792482   
    330000   968.94862     -22.48258      -22.983566     -22.983566      0.50098576   
    331000   1001.1547     -22.35625      -22.873888     -22.873888      0.51763758   
    332000   985.71685     -22.465455     -22.97511      -22.97511       0.50965561   
    333000   993.52994     -22.371696     -22.885391     -22.885391      0.5136953    
    334000   1006.3654     -22.394607     -22.914938     -22.914938      0.52033173   
    335000   1014.9462     -22.392887     -22.917655     -22.917655      0.52476836   
    336000   1022.8529     -22.422712     -22.951568     -22.951568      0.52885646   
    337000   1003.4127     -22.454324     -22.973129     -22.973129      0.51880506   
    338000   987.39747     -22.411923     -22.922448     -22.922448      0.51052456   
    339000   1017.8537     -22.319008     -22.845279     -22.845279      0.52627169   
    340000   992.51145     -22.189577     -22.702746     -22.702746      0.5131687    
    341000   1037.614      -22.373156     -22.909645     -22.909645      0.53648856   
    342000   1006.0613     -22.190531     -22.710705     -22.710705      0.52017452   
    343000   1007.5213     -22.399698     -22.920628     -22.920628      0.52092937   
    344000   1031.2331     -22.328153     -22.861342     -22.861342      0.53318937   
    345000   1040.5002     -22.381222     -22.919203     -22.919203      0.53798083   
    346000   1034.3444     -22.267274     -22.802072     -22.802072      0.53479805   
    347000   1013.3936     -22.316101     -22.840067     -22.840067      0.5239656    
    348000   1068.3024     -22.316842     -22.869198     -22.869198      0.5523557    
    349000   1068.1668     -22.30683      -22.859115     -22.859115      0.55228558   
    350000   1029.6757     -22.519351     -23.051735     -23.051735      0.53238413   
    351000   1058.0275     -22.403904     -22.950947     -22.950947      0.54704313   
    352000   1037.4943     -22.215807     -22.752233     -22.752233      0.53642665   
    353000   988.93604     -22.096455     -22.607775     -22.607775      0.51132007   
    354000   1090.1388     -22.243304     -22.80695      -22.80695       0.56364599   
    355000   1058.6341     -22.250321     -22.797678     -22.797678      0.54735678   
    356000   1075.9846     -22.420319     -22.976647     -22.976647      0.55632768   
    357000   1038.4516     -22.423084     -22.960005     -22.960005      0.5369216    
    358000   1085.6756     -22.365821     -22.927159     -22.927159      0.56133836   
    359000   1043.9294     -22.321766     -22.86152      -22.86152       0.53975385   
    360000   1099.0025     -22.466736     -23.034965     -23.034965      0.56822889   
    361000   1114.8293     -22.221881     -22.798293     -22.798293      0.57641198   
    362000   1058.7729     -22.368908     -22.916337     -22.916337      0.54742857   
    363000   1137.2798     -22.420764     -23.008784     -23.008784      0.58801983   
    364000   1084.5005     -22.427292     -22.988022     -22.988022      0.56073074   
    365000   1139.9464     -22.393291     -22.982689     -22.982689      0.58939853   
    366000   1078.6869     -22.34512      -22.902845     -22.902845      0.55772491   
    367000   1102.8305     -22.235177     -22.805385     -22.805385      0.57020811   
    368000   1116.3581     -22.30052      -22.877722     -22.877722      0.57720243   
    369000   1095.1324     -22.42121      -22.987438     -22.987438      0.56622791   
    370000   1115.7122     -22.451621     -23.02849      -23.02849       0.57686849   
    371000   1096.2888     -22.311383     -22.878209     -22.878209      0.56682579   
    372000   1120.2148     -22.341054     -22.92025      -22.92025       0.57919652   
    373000   1175.2025     -22.373152     -22.980779     -22.980779      0.60762738   
    374000   1129.6923     -22.03862      -22.622717     -22.622717      0.58409674   
    375000   1104.7741     -22.341972     -22.913185     -22.913185      0.57121302   
    376000   1209.6901     -22.169397     -22.794856     -22.794856      0.6254589    
    377000   1138.9358     -22.364978     -22.953854     -22.953854      0.58887604   
    378000   1181.9822     -22.245305     -22.856437     -22.856437      0.61113277   
    379000   1125.0128     -22.291071     -22.872748     -22.872748      0.58167728   
    380000   1109.2315     -22.007362     -22.580879     -22.580879      0.57351772   
    381000   1140.2408     -22.192541     -22.782092     -22.782092      0.58955079   
    382000   1176.4719     -22.297848     -22.906132     -22.906132      0.60828373   
    383000   1208.7285     -22.301252     -22.926214     -22.926214      0.62496169   
    384000   1092.9345     -22.33696      -22.902051     -22.902051      0.56509149   
    385000   1132.9337     -22.33053      -22.916302     -22.916302      0.5857727    
    386000   1187.0964     -22.147164     -22.760941     -22.760941      0.61377702   
    387000   1183.1016     -21.97892      -22.590632     -22.590632      0.61171151   
    388000   1216.9536     -22.231555     -22.86077      -22.86077       0.62921441   
    389000   1173.7534     -21.956456     -22.563335     -22.563335      0.60687812   
    390000   1173.2721     -22.263181     -22.86981      -22.86981       0.60662927   
    391000   1152.2248     -22.225998     -22.821745     -22.821745      0.59574697   
    392000   1172.8094     -22.293638     -22.900028     -22.900028      0.60639005   
    393000   1174.7747     -22.13946      -22.746866     -22.746866      0.60740622   
    394000   1132.3725     -22.187824     -22.773306     -22.773306      0.58548252   
    395000   1242.5217     -22.230571     -22.873005     -22.873005      0.64243415   
    396000   1195.462      -22.182149     -22.800251     -22.800251      0.61810237   
    397000   1164.2225     -22.484341     -23.086291     -23.086291      0.60195029   
    398000   1182.7092     -22.371681     -22.98319      -22.98319       0.61150865   
    399000   1165.3201     -22.071358     -22.673876     -22.673876      0.60251778   
    400000   1141.6574     -21.912059     -22.502342     -22.502342      0.59028322   
    401000   1220.186      -22.14107      -22.771956     -22.771956      0.63088569   
    402000   1156.6082     -22.052373     -22.650386     -22.650386      0.59801339   
    403000   1218.2439     -22.331968     -22.96185      -22.96185       0.62988153   
    404000   1163.2109     -22.295121     -22.896548     -22.896548      0.60142723   
    405000   1226.6071     -22.22283      -22.857035     -22.857035      0.63420562   
    406000   1178.0982     -22.153383     -22.762508     -22.762508      0.60912456   
    407000   1181.2133     -22.301922     -22.912657     -22.912657      0.61073521   
    408000   1233.0637     -22.095323     -22.732867     -22.732867      0.63754398   
    409000   1231.6662     -22.145649     -22.78247      -22.78247       0.63682138   
    410000   1261.9788     -22.419502     -23.071997     -23.071997      0.65249423   
    411000   1194.9177     -22.25367      -22.871491     -22.871491      0.61782094   
    412000   1236.0681     -22.292538     -22.931635     -22.931635      0.63909737   
    413000   1151.2253     -22.118556     -22.713786     -22.713786      0.59523017   
    414000   1255.4489     -22.149071     -22.798189     -22.798189      0.64911802   
    415000   1187.663      -22.111464     -22.725534     -22.725534      0.61406996   
    416000   1276.7967     -22.354247     -23.014403     -23.014403      0.66015573   
    417000   1197.4        -22.259519     -22.878623     -22.878623      0.61910441   
    418000   1270.8249     -22.315413     -22.972481     -22.972481      0.65706806   
    419000   1269.5588     -22.243802     -22.900215     -22.900215      0.65641341   
    420000   1238.7676     -22.257501     -22.897994     -22.897994      0.6404931    
    421000   1260.9941     -22.066182     -22.718167     -22.718167      0.6519851    
    422000   1269.4034     -22.127414     -22.783747     -22.783747      0.65633308   
    423000   1285.1628     -22.210302     -22.874783     -22.874783      0.6644813    
    424000   1251.2416     -22.171458     -22.818401     -22.818401      0.64694268   
    425000   1255.5091     -22.264518     -22.913667     -22.913667      0.64914914   
    426000   1299.2097     -22.232794     -22.904539     -22.904539      0.67174412   
    427000   1272.4402     -22.21564      -22.873543     -22.873543      0.65790323   
    428000   1251.4429     -22.197556     -22.844603     -22.844603      0.64704675   
    429000   1282.0339     -22.178497     -22.841361     -22.841361      0.66286353   
    430000   1309.5079     -22.126661     -22.80373      -22.80373       0.67706873   
    431000   1289.9667     -22.020435     -22.6874       -22.6874        0.66696511   
    432000   1279.591      -22.182419     -22.84402      -22.84402       0.66160049   
    433000   1353.1094     -22.122894     -22.822507     -22.822507      0.69961249   
    434000   1313.2395     -22.171061     -22.850059     -22.850059      0.6789981    
    435000   1288.7387     -22.172743     -22.839073     -22.839073      0.6663302    
    436000   1258.6277     -22.141889     -22.792651     -22.792651      0.65076159   
    437000   1332.3316     -22.202804     -22.891673     -22.891673      0.68886952   
    438000   1325.6626     -22.006313     -22.691734     -22.691734      0.68542136   
    439000   1300.0272     -22.145059     -22.817226     -22.817226      0.67216682   
    440000   1325.3305     -22.150799     -22.836048     -22.836048      0.68524967   
    441000   1326.9022     -22.193438     -22.8795       -22.8795        0.68606228   
    442000   1338.4993     -22.135989     -22.828047     -22.828047      0.69205847   
    443000   1299.0311     -22.040847     -22.712498     -22.712498      0.67165181   
    444000   1314.9442     -22.194569     -22.874449     -22.874449      0.6798795    
    445000   1338.7697     -22.079262     -22.77146      -22.77146       0.69219825   
    446000   1353.0891     -22.099753     -22.799355     -22.799355      0.69960198   
    447000   1345.9662     -22.073191     -22.76911      -22.76911       0.69591916   
    448000   1310.1482     -22.065435     -22.742834     -22.742834      0.6773998    
    449000   1335.0784     -22.184727     -22.875016     -22.875016      0.69028972   
    450000   1372.6318     -22.053888     -22.763595     -22.763595      0.70970634   
    451000   1354.281      -22.09195      -22.792168     -22.792168      0.70021826   
    452000   1336.584      -22.066118     -22.757186     -22.757186      0.69106816   
    453000   1329.4579     -22.063726     -22.751109     -22.751109      0.68738369   
    454000   1378.0061     -22.149637     -22.862122     -22.862122      0.71248507   
    455000   1392.33       -21.972297     -22.692188     -22.692188      0.7198911    
    456000   1353.6823     -22.042673     -22.742582     -22.742582      0.6999087    
    457000   1356.9625     -22.057882     -22.759487     -22.759487      0.70160469   
    458000   1352.7163     -22.079489     -22.778898     -22.778898      0.69940922   
    459000   1391.8599     -22.123374     -22.843022     -22.843022      0.71964805   
    460000   1411.4093     -21.96366      -22.693416     -22.693416      0.72975587   
    461000   1373.9539     -22.042093     -22.752483     -22.752483      0.71038994   
    462000   1368.4929     -22.039563     -22.747129     -22.747129      0.70756635   
    463000   1361.0472     -22.058366     -22.762082     -22.762082      0.70371662   
    464000   1405.3913     -22.097362     -22.824007     -22.824007      0.72664435   
    465000   1421.7099     -21.931634     -22.666715     -22.666715      0.73508169   
    466000   1385.823      -22.012004     -22.72853      -22.72853       0.71652674   
    467000   1389.438      -22.018532     -22.736928     -22.736928      0.71839581   
    468000   1378.0811     -22.034059     -22.746583     -22.746583      0.71252384   
    469000   1422.0549     -22.090236     -22.825496     -22.825496      0.7352601    
    470000   1440.2654     -21.944722     -22.689398     -22.689398      0.74467564   
    471000   1408.6155     -21.993963     -22.722275     -22.722275      0.72831139   
    472000   1404.0352     -21.992424     -22.718367     -22.718367      0.72594315   
    473000   1386.7366     -21.994833     -22.711832     -22.711832      0.7169991    
    474000   1430.1464     -22.085376     -22.82482      -22.82482       0.73944371   
    475000   1465.0177     -21.96634      -22.723813     -22.723813      0.75747361   
    476000   1433.8641     -21.988459     -22.729825     -22.729825      0.74136595   
    477000   1423.522      -21.979089     -22.715108     -22.715108      0.73601862   
    478000   1392.5556     -21.942649     -22.662657     -22.662657      0.72000776   
    479000   1427.7398     -22.072911     -22.81111      -22.81111       0.73819941   
    480000   1468.0889     -21.993555     -22.752617     -22.752617      0.75906152   
    481000   1459.947      -21.98952      -22.744372     -22.744372      0.75485184   
    482000   1463.7089     -21.968894     -22.725691     -22.725691      0.75679691   
    483000   1423.3013     -21.876745     -22.61265      -22.61265       0.73590451   
    484000   1425.3579     -22.03204      -22.769007     -22.769007      0.73696786   
    485000   1458.3526     -22.006365     -22.760393     -22.760393      0.75402745   
    486000   1464.8335     -21.995092     -22.75247      -22.75247       0.75737834   
    487000   1491.9733     -22.004634     -22.776045     -22.776045      0.77141072   
    488000   1476.8559     -21.84984      -22.613435     -22.613435      0.76359445   
    489000   1446.4521     -21.968999     -22.716873     -22.716873      0.74787445   
    490000   1454.762      -21.983175     -22.735346     -22.735346      0.752171     
    491000   1450.1592     -21.972129     -22.721921     -22.721921      0.74979114   
    492000   1492.0929     -22.057169     -22.828641     -22.828641      0.77147259   
    493000   1517.3682     -21.906061     -22.690602     -22.690602      0.78454092   
    494000   1494.1789     -21.939748     -22.7123       -22.7123        0.77255111   
    495000   1487.1158     -21.943587     -22.712487     -22.712487      0.76889923   
    496000   1455.5167     -21.879807     -22.632368     -22.632368      0.75256118   
    497000   1469.5849     -22.040721     -22.800556     -22.800556      0.75983503   
    498000   1507.4179     -21.989869     -22.769265     -22.769265      0.77939625   
    499000   1508.7307     -21.976604     -22.756679     -22.756679      0.780075     
    500000   1529.5731     -21.981921     -22.772773     -22.772773      0.79085136   
    501000   1515.8456     -21.817762     -22.601516     -22.601516      0.78375369   
    502000   1488.8753     -21.941191     -22.711        -22.711         0.76980896   
    503000   1493.7461     -21.958979     -22.731307     -22.731307      0.77232736   
    504000   1484.1022     -21.939027     -22.706369     -22.706369      0.76734106   
    505000   1518.3646     -22.051605     -22.836661     -22.836661      0.7850561    
    506000   1553.1339     -21.926435     -22.729468     -22.729468      0.80303324   
    507000   1539.2919     -21.93645      -22.732326     -22.732326      0.79587636   
    508000   1541.5671     -21.927701     -22.724754     -22.724754      0.79705276   
    509000   1513.7894     -21.803741     -22.586432     -22.586432      0.78269054   
    510000   1501.7611     -21.957887     -22.734359     -22.734359      0.77647145   
    511000   1521.0978     -21.961945     -22.748415     -22.748415      0.7864693    
    512000   1519.0019     -21.948362     -22.733748     -22.733748      0.78538563   
    513000   1555.4759     -22.02852      -22.832764     -22.832764      0.80424415   
    514000   1580.5847     -21.876196     -22.693422     -22.693422      0.81722643   
    515000   1561.4405     -21.908816     -22.716145     -22.716145      0.80732809   
    516000   1558.5202     -21.900463     -22.706281     -22.706281      0.80581821   
    517000   1531.1891     -21.792631     -22.584318     -22.584318      0.79168689   
    518000   1523.8785     -21.948145     -22.736052     -22.736052      0.78790703   
    519000   1545.0315     -21.946491     -22.745335     -22.745335      0.79884399   
    520000   1541.4161     -21.932485     -22.729459     -22.729459      0.79697467   
    521000   1577.5324     -22.012913     -22.828562     -22.828562      0.81564827   
    522000   1604.3543     -21.865576     -22.695093     -22.695093      0.8295163    
    523000   1588.0821     -21.896594     -22.717697     -22.717697      0.8211029    
    524000   1589.9553     -21.886854     -22.708925     -22.708925      0.82207139   
    525000   1565.4821     -21.760023     -22.56944      -22.56944       0.80941779   
    526000   1551.1359     -21.906364     -22.708364     -22.708364      0.80200019   
    527000   1562.0989     -21.912106     -22.719775     -22.719775      0.80766854   
    528000   1550.7312     -21.887933     -22.689724     -22.689724      0.80179096   
    529000   1581.7516     -22.001139     -22.818969     -22.818969      0.81782976   
    530000   1618.0232     -21.891658     -22.728242     -22.728242      0.83658365   
    531000   1610.6309     -21.903787     -22.736549     -22.736549      0.83276152   
    532000   1629.382      -21.905606     -22.748063     -22.748063      0.8424566    
    533000   1622.2128     -21.743764     -22.582514     -22.582514      0.83874987   
    534000   1597.0649     -21.852553     -22.6783       -22.6783        0.82574739   
    535000   1593.1853     -21.853885     -22.677627     -22.677627      0.82374143   
    536000   1566.213      -21.784789     -22.594584     -22.594584      0.80979567   
    537000   1576.3225     -21.938217     -22.75324      -22.75324       0.81502269   
    538000   1607.1794     -21.897297     -22.728274     -22.728274      0.83097696   
    539000   1603.012      -21.889762     -22.718585     -22.718585      0.82882225   
    540000   1641.4867     -21.958272     -22.806987     -22.806987      0.84871521   
    541000   1665.5864     -21.816621     -22.677796     -22.677796      0.86117574   
    542000   1649.1166     -21.855925     -22.708585     -22.708585      0.85266022   
    543000   1656.9478     -21.848584     -22.705294     -22.705294      0.85670927   
    544000   1640.0493     -21.701704     -22.549676     -22.549676      0.84797206   
    545000   1617.6839     -21.819649     -22.656057     -22.656057      0.83640822   
    546000   1622.0762     -21.813528     -22.652207     -22.652207      0.83867923   
    547000   1598.1147     -21.747591     -22.573882     -22.573882      0.82629013   
    548000   1610.6634     -21.899442     -22.73222      -22.73222       0.83277831   
    549000   1638.0901     -21.854919     -22.701878     -22.701878      0.84695907   
    550000   1630.1664     -21.845593     -22.688455     -22.688455      0.84286218   
    551000   1665.174      -21.933564     -22.794527     -22.794527      0.86096254   
    552000   1692.4505     -21.808751     -22.683816     -22.683816      0.87506557   
    553000   1677.7924     -21.834606     -22.702093     -22.702093      0.86748674   
    554000   1697.1356     -21.85212      -22.729608     -22.729608      0.87748796   
    555000   1694.5637     -21.692272     -22.56843      -22.56843       0.87615818   
    556000   1671.626      -21.780584     -22.644883     -22.644883      0.86429848   
    557000   1674.772      -21.776857     -22.642782     -22.642782      0.86592507   
    558000   1651.9931     -21.658513     -22.51266      -22.51266       0.8541475    
    559000   1646.6522     -21.806546     -22.657932     -22.657932      0.851386     
    560000   1660.7864     -21.796228     -22.654922     -22.654922      0.85869397   
    561000   1638.4189     -21.743912     -22.591041     -22.591041      0.84712905   
    562000   1655.5313     -21.886385     -22.742362     -22.742362      0.85597685   
    563000   1684.2873     -21.821514     -22.692359     -22.692359      0.87084488   
    564000   1670.3175     -21.811369     -22.674991     -22.674991      0.86362193   
    565000   1705.1629     -21.899697     -22.781336     -22.781336      0.88163841   
    566000   1730.2453     -21.776027     -22.670634     -22.670634      0.89460702   
    567000   1716.0389     -21.80233      -22.689592     -22.689592      0.88726176   
    568000   1740.8142     -21.831981     -22.732053     -22.732053      0.9000716    
    569000   1751.5172     -21.681453     -22.587059     -22.587059      0.90560547   
    570000   1729.8552     -21.751159     -22.645565     -22.645565      0.89440534   
    571000   1742.7841     -21.759186     -22.660276     -22.660276      0.90109008   
    572000   1730.4849     -21.613785     -22.508515     -22.508515      0.89473091   
    573000   1710.9971     -21.732863     -22.617518     -22.617518      0.88465494   
    574000   1717.7573     -21.731406     -22.619556     -22.619556      0.88815024   
    575000   1694.1295     -21.613088     -22.489022     -22.489022      0.87593368   
    576000   1692.5625     -21.762707     -22.637831     -22.637831      0.87512349   
    577000   1711.0594     -21.738173     -22.62286      -22.62286       0.88468714   
    578000   1688.6163     -21.667862     -22.540945     -22.540945      0.87308315   
    579000   1700.979      -21.81467      -22.694145     -22.694145      0.87947516   
    580000   1723.7049     -21.757165     -22.64839      -22.64839       0.89122539   
    581000   1705.5493     -21.726369     -22.608208     -22.608208      0.88183819   
    582000   1724.5339     -21.845838     -22.737492     -22.737492      0.89165401   
    583000   1754.3347     -21.767397     -22.67446      -22.67446       0.90706224   
    584000   1736.3171     -21.760318     -22.658064     -22.658064      0.89774639   
    585000   1759.8345     -21.8568       -22.766706     -22.766706      0.90990586   
    586000   1786.6736     -21.740473     -22.664256     -22.664256      0.92378276   
    587000   1766.2559     -21.760706     -22.673932     -22.673932      0.913226     
    588000   1796.5265     -21.828664     -22.757541     -22.757541      0.92887713   
    589000   1813.7719     -21.683551     -22.621345     -22.621345      0.93779367   
    590000   1791.4646     -21.739989     -22.666249     -22.666249      0.92625992   
    591000   1815.4831     -21.76974      -22.708419     -22.708419      0.93867844   
    592000   1823.9366     -21.623584     -22.566634     -22.566634      0.94304923   
    593000   1803.6696     -21.699776     -22.632346     -22.632346      0.9325704    
    594000   1821.2147     -21.725015     -22.666657     -22.666657      0.94164191   
    595000   1823.6986     -21.575478     -22.518404     -22.518404      0.9429262    
    596000   1802.3513     -21.677768     -22.609657     -22.609657      0.93188879   
    597000   1819.3326     -21.699429     -22.640098     -22.640098      0.9406688    
    598000   1816.9422     -21.537622     -22.477055     -22.477055      0.93943284   
    599000   1802.912      -21.668176     -22.600355     -22.600355      0.93217866   
    600000   1820.0269     -21.663056     -22.604084     -22.604084      0.94102777   
    601000   1810.9402     -21.519668     -22.455997     -22.455997      0.93632956   
    602000   1803.3806     -21.64727      -22.579691     -22.579691      0.93242093   
    603000   1815.0166     -21.642061     -22.580498     -22.580498      0.93843724   
    604000   1805.3885     -21.51148      -22.444939     -22.444939      0.93345913   
    605000   1801.0551     -21.646005     -22.577223     -22.577223      0.93121859   
    606000   1816.2481     -21.650658     -22.589732     -22.589732      0.93907397   
    607000   1801.2864     -21.507517     -22.438855     -22.438855      0.93133817   
    608000   1799.0813     -21.660439     -22.590637     -22.590637      0.93019802   
    609000   1822.4853     -21.630692     -22.572991     -22.572991      0.94229888   
    610000   1804.9804     -21.503868     -22.437116     -22.437116      0.93324811   
    611000   1809.1835     -21.637788     -22.573209     -22.573209      0.9354213    
    612000   1820.8832     -21.624231     -22.565702     -22.565702      0.94147052   
    613000   1808.0762     -21.50005      -22.434899     -22.434899      0.93484877   
    614000   1811.7261     -21.640121     -22.576857     -22.576857      0.9367359    
    615000   1834.8837     -21.628455     -22.577164     -22.577164      0.94870933   
    616000   1818.0747     -21.491375     -22.431393     -22.431393      0.94001838   
    617000   1821.8318     -21.644189     -22.58615      -22.58615       0.94196099   
    618000   1845.13       -21.605292     -22.559299     -22.559299      0.95400711   
    619000   1829.9233     -21.479774     -22.425919     -22.425919      0.94614463   
    620000   1837.4218     -21.610512     -22.560534     -22.560534      0.95002161   
    621000   1851.3019     -21.60554      -22.562738     -22.562738      0.95719821   
    622000   1841.1308     -21.467436     -22.419376     -22.419376      0.95193932   
    623000   1842.8881     -21.6176       -22.570448     -22.570448      0.95284794   
    624000   1872.0888     -21.596552     -22.564498     -22.564498      0.9679459    
    625000   1860.3099     -21.450262     -22.412118     -22.412118      0.96185571   
    626000   1866.3289     -21.592569     -22.557536     -22.557536      0.96496777   
    627000   1881.5914     -21.580124     -22.552983     -22.552983      0.97285913   
    628000   1879.6396     -21.437535     -22.409385     -22.409385      0.97184997   
    629000   1880.5508     -21.579848     -22.552169     -22.552169      0.97232107   
    630000   1906.0936     -21.587351     -22.572878     -22.572878      0.98552774   
    631000   1906.469      -21.431731     -22.417453     -22.417453      0.98572185   
    632000   1902.7948     -21.576649     -22.560471     -22.560471      0.98382214   
    633000   1927.2174     -21.587387     -22.583837     -22.583837      0.99644962   
    634000   1934.7461     -21.438511     -22.438853     -22.438853      1.0003423    
    635000   1924.2826     -21.576425     -22.571358     -22.571358      0.99493219   
    636000   1948.0143     -21.607223     -22.614425     -22.614425      1.0072024    
    637000   1958.2163     -21.463337     -22.475814     -22.475814      1.0124773    
    638000   1938.3192     -21.584535     -22.586725     -22.586725      1.0021897    
    639000   1965.0127     -21.643903     -22.659894     -22.659894      1.0159913    
    640000   1976.7462     -21.504338     -22.526396     -22.526396      1.022058     
    641000   1945.4647     -21.607262     -22.613146     -22.613146      1.0058842    
    642000   1971.0721     -21.676589     -22.695714     -22.695714      1.0191243    
    643000   1977.6217     -21.547699     -22.57021      -22.57021       1.0225107    
    644000   1943.8908     -21.611063     -22.616133     -22.616133      1.0050704    
    645000   1958.5583     -21.710337     -22.722992     -22.722992      1.0126541    
    646000   1969.1014     -21.590719     -22.608824     -22.608824      1.0181053    
    647000   1925.7482     -21.603593     -22.599283     -22.599283      0.99568999   
    648000   1939.2195     -21.725057     -22.727712     -22.727712      1.0026552    
    649000   1948.481      -21.591915     -22.599359     -22.599359      1.0074437    
    650000   1909.7264     -21.563838     -22.551244     -22.551244      0.98740603   
    651000   1911.4972     -21.659238     -22.64756      -22.64756       0.98832161   
    652000   1935.9727     -21.589737     -22.590714     -22.590714      1.0009764    
    653000   1903.2604     -21.482168     -22.466231     -22.466231      0.98406287   
    654000   1911.1369     -21.628866     -22.617001     -22.617001      0.98813532   
    655000   1940.4228     -21.526376     -22.529653     -22.529653      1.0032773    
    656000   1915.3219     -21.396996     -22.387295     -22.387295      0.99029917   
    657000   1936.5101     -21.509355     -22.510609     -22.510609      1.0012543    
    658000   1959.0189     -21.500788     -22.51368      -22.51368       1.0128922    
    659000   1960.2219     -21.343413     -22.356927     -22.356927      1.0135143    
    660000   1966.3647     -21.499909     -22.516599     -22.516599      1.0166904    
    661000   2008.0452     -21.520474     -22.558714     -22.558714      1.0382409    
    662000   2014.097      -21.336876     -22.378245     -22.378245      1.0413699    
    663000   2016.8367     -21.511025     -22.553812     -22.553812      1.0427864    
    664000   2027.6213     -21.509151     -22.557513     -22.557513      1.0483625    
    665000   2045.2779     -21.400585     -22.458077     -22.458077      1.0574917    
    666000   2019.5819     -21.49563      -22.539835     -22.539835      1.0442058    
    667000   2041.0123     -21.624239     -22.679525     -22.679525      1.0552862    
    668000   2061.0952     -21.471756     -22.537426     -22.537426      1.0656698    
    669000   2002.1193     -21.547827     -22.583004     -22.583004      1.0351769    
    670000   2030.995      -21.660253     -22.71036      -22.71036       1.0501068    
    671000   2021.967      -21.508635     -22.554074     -22.554074      1.045439     
    672000   1983.7864     -21.507635     -22.533333     -22.533333      1.0256981    
    673000   1987.2926     -21.577728     -22.605238     -22.605238      1.0275109    
    674000   2003.3411     -21.535378     -22.571187     -22.571187      1.0358087    
    675000   1967.098      -21.406581     -22.42365      -22.42365       1.0170695    
    676000   1973.9604     -21.561765     -22.582382     -22.582382      1.0206176    
    677000   2015.5283     -21.457301     -22.499411     -22.499411      1.0421099    
    678000   1995.8304     -21.299096     -22.331022     -22.331022      1.0319253    
    679000   2022.4121     -21.447097     -22.492766     -22.492766      1.0456691    
    680000   2041.7422     -21.42018      -22.475844     -22.475844      1.0556636    
    681000   2066.8244     -21.273644     -22.342276     -22.342276      1.0686321    
    682000   2065.1499     -21.441058     -22.508824     -22.508824      1.0677663    
    683000   2099.7755     -21.521231     -22.6069       -22.6069        1.0856692    
    684000   2107.8185     -21.378482     -22.46831      -22.46831       1.0898277    
    685000   2071.7018     -21.495075     -22.566229     -22.566229      1.0711539    
    686000   2083.9169     -21.58955      -22.66702      -22.66702       1.0774696    
    687000   2090.202      -21.485853     -22.566573     -22.566573      1.0807193    
    688000   2027.5314     -21.460085     -22.508401     -22.508401      1.048316     
    689000   2022.4541     -21.598371     -22.644062     -22.644062      1.0456908    
    690000   2048.932      -21.451417     -22.510798     -22.510798      1.059381     
    691000   2012.8556     -21.32358      -22.364308     -22.364308      1.040728     
    692000   2039.0687     -21.434335     -22.488616     -22.488616      1.0542813    
    693000   2061.5715     -21.406107     -22.472023     -22.472023      1.0659161    
    694000   2081.8958     -21.226317     -22.302742     -22.302742      1.0764246    
    695000   2094.6145     -21.412358     -22.495359     -22.495359      1.0830007    
    696000   2136.275      -21.472637     -22.577178     -22.577178      1.1045409    
    697000   2143.6906     -21.344179     -22.452554     -22.452554      1.108375     
    698000   2106.0823     -21.461869     -22.550799     -22.550799      1.08893      
    699000   2113.35       -21.569688     -22.662375     -22.662375      1.0926877    
    700000   2121.1044     -21.458778     -22.555475     -22.555475      1.096697     
    701000   2053.0264     -21.412984     -22.474482     -22.474482      1.0614979    
    702000   2049.9028     -21.533615     -22.593498     -22.593498      1.0598829    
    703000   2081.9074     -21.403348     -22.479779     -22.479779      1.0764306    
    704000   2060.4089     -21.239054     -22.304369     -22.304369      1.065315     
    705000   2101.7037     -21.367425     -22.454091     -22.454091      1.0866661    
    706000   2129.9039     -21.390671     -22.491918     -22.491918      1.1012467    
    707000   2162.6787     -21.224303     -22.342495     -22.342495      1.1181926    
    708000   2145.2876     -21.415398     -22.524599     -22.524599      1.1092008    
    709000   2178.3887     -21.535968     -22.662283     -22.662283      1.1263153    
    710000   2165.0318     -21.405244     -22.524654     -22.524654      1.1194093    
    711000   2112.0707     -21.434619     -22.526645     -22.526645      1.0920263    
    712000   2100.1651     -21.553704     -22.639574     -22.639574      1.0858706    
    713000   2129.581      -21.421262     -22.522342     -22.522342      1.1010798    
    714000   2088.2538     -21.256774     -22.336486     -22.336486      1.079712     
    715000   2118.1134     -21.407361     -22.502511     -22.502511      1.0951506    
    716000   2161.73       -21.321441     -22.439143     -22.439143      1.1177021    
    717000   2195.8581     -21.173305     -22.308652     -22.308652      1.1353477    
    718000   2188.3996     -21.361006     -22.492498     -22.492498      1.1314914    
    719000   2219.7756     -21.413334     -22.561048     -22.561048      1.1477141    
    720000   2203.4061     -21.320196     -22.459446     -22.459446      1.1392504    
    721000   2154.0697     -21.387446     -22.501187     -22.501187      1.1137414    
    722000   2145.0241     -21.467629     -22.576694     -22.576694      1.1090645    
    723000   2149.4909     -21.368839     -22.480213     -22.480213      1.111374     
    724000   2087.7323     -21.258765     -22.338207     -22.338207      1.0794423    
    725000   2117.2561     -21.326979     -22.421686     -22.421686      1.0947073    
    726000   2151.4525     -21.317868     -22.430256     -22.430256      1.1123882    
    727000   2168.2477     -21.126749     -22.247821     -22.247821      1.121072     
    728000   2192.4047     -21.310326     -22.443888     -22.443888      1.1335622    
    729000   2237.1239     -21.416279     -22.572963     -22.572963      1.1566838    
    730000   2257.4034     -21.278215     -22.445384     -22.445384      1.1671692    
    731000   2210.1371     -21.374995     -22.517725     -22.517725      1.1427306    
    732000   2197.6776     -21.553394     -22.689683     -22.689683      1.1362885    
    733000   2200.0273     -21.375256     -22.512759     -22.512759      1.1375034    
    734000   2141.3761     -21.247327     -22.354505     -22.354505      1.1071783    
    735000   2157.3926     -21.367198     -22.482658     -22.482658      1.1154595    
    736000   2211.6137     -21.305811     -22.449305     -22.449305      1.143494     
    737000   2237.9325     -21.106132     -22.263234     -22.263234      1.1571019    
    738000   2223.8012     -21.327284     -22.477079     -22.477079      1.1497955    
    739000   2276.9405     -21.401985     -22.579255     -22.579255      1.1772706    
    740000   2258.5767     -21.284861     -22.452636     -22.452636      1.1677758    
    741000   2203.0024     -21.329239     -22.46828      -22.46828       1.1390416    
    742000   2183.8247     -21.451386     -22.580512     -22.580512      1.129126     
    743000   2211.5344     -21.324136     -22.467589     -22.467589      1.143453     
    744000   2171.5844     -21.133482     -22.256279     -22.256279      1.1227973    
    745000   2232.3621     -21.264197     -22.418419     -22.418419      1.1542218    
    746000   2266.6362     -21.297599     -22.469542     -22.469542      1.1719429    
    747000   2301.3563     -21.152653     -22.342548     -22.342548      1.1898946    
    748000   2260.1465     -21.299369     -22.467957     -22.467957      1.1685875    
    749000   2276.3676     -21.482932     -22.659906     -22.659906      1.1769744    
    750000   2269.4056     -21.306589     -22.479964     -22.479964      1.1733748    
    751000   2202.3289     -21.241498     -22.380192     -22.380192      1.1386934    
    752000   2185.6598     -21.348638     -22.478713     -22.478713      1.1300748    
    753000   2240.1827     -21.255695     -22.413961     -22.413961      1.1582654    
    754000   2273.7552     -21.04156      -22.217184     -22.217184      1.1756237    
    755000   2280.9867     -21.276347     -22.45571      -22.45571       1.1793627    
    756000   2326.1599     -21.347893     -22.550612     -22.550612      1.2027191    
    757000   2298.4664     -21.226331     -22.414731     -22.414731      1.1884004    
    758000   2267.3343     -21.261359     -22.433663     -22.433663      1.1723039    
    759000   2252.9626     -21.421527     -22.5864       -22.5864        1.1648731    
    760000   2288.491      -21.28121      -22.464453     -22.464453      1.1832427    
    761000   2218.1143     -21.102788     -22.249643     -22.249643      1.1468551    
    762000   2273.9666     -21.219374     -22.395107     -22.395107      1.175733     
    763000   2308.6739     -21.231657     -22.425335     -22.425335      1.1936781    
    764000   2363.8178     -21.087796     -22.309986     -22.309986      1.2221897    
    765000   2283.2138     -21.254284     -22.434799     -22.434799      1.1805142    
    766000   2313.8434     -21.402736     -22.599087     -22.599087      1.1963509    
    767000   2306.116      -21.210524     -22.402879     -22.402879      1.1923556    
    768000   2280.234      -21.18814      -22.367114     -22.367114      1.1789735    
    769000   2248.5418     -21.326902     -22.48949      -22.48949       1.1625873    
    770000   2295.8913     -21.237002     -22.424071     -22.424071      1.187069     
    771000   2268.8029     -20.990655     -22.163718     -22.163718      1.1730632    
    772000   2354.5366     -21.191559     -22.40895      -22.40895       1.217391     
    773000   2396.8763     -21.240977     -22.480259     -22.480259      1.2392823    
    774000   2389.8824     -21.150256     -22.385923     -22.385923      1.2356662    
    775000   2291.2788     -21.208146     -22.392831     -22.392831      1.1846841    
    776000   2301.9359     -21.376046     -22.56624      -22.56624       1.1901943    
    777000   2327.5114     -21.158933     -22.362351     -22.362351      1.2034179    
    778000   2313.9586     -21.097073     -22.293484     -22.293484      1.1964105    
    779000   2274.9249     -21.260175     -22.436403     -22.436403      1.1762285    
    780000   2326.7757     -21.195488     -22.398526     -22.398526      1.2030374    
    781000   2314.5105     -20.941904     -22.1386       -22.1386        1.1966959    
    782000   2395.9227     -21.169543     -22.408332     -22.408332      1.2387893    
    783000   2449.3778     -21.225087     -22.491515     -22.491515      1.2664277    
    784000   2426.4617     -21.163444     -22.418023     -22.418023      1.2545791    
    785000   2293.1654     -21.193567     -22.379226     -22.379226      1.1856596    
    786000   2288.3666     -21.358487     -22.541665     -22.541665      1.1831784    
    787000   2316.4732     -21.110053     -22.307764     -22.307764      1.1977106    
    788000   2358.4798     -20.99563      -22.21506      -22.21506       1.2194298    
    789000   2352.5813     -21.217845     -22.434225     -22.434225      1.21638      
    790000   2404.9902     -21.164379     -22.407857     -22.407857      1.2434775    
    791000   2351.2407     -20.932923     -22.14861      -22.14861       1.2156868    
    792000   2408.7914     -21.133421     -22.378864     -22.378864      1.2454429    
    793000   2457.75       -21.188906     -22.459663     -22.459663      1.2707565    
    794000   2484.8374     -21.143532     -22.428294     -22.428294      1.2847618    
    795000   2320.2733     -21.207153     -22.406828     -22.406828      1.1996754    
    796000   2292.1798     -21.364754     -22.549904     -22.549904      1.18515      
    797000   2294.65       -21.102109     -22.288536     -22.288536      1.1864271    
    798000   2372.1475     -20.864136     -22.090633     -22.090633      1.2264965    
    799000   2435.4257     -21.132644     -22.391857     -22.391857      1.2592139    
    800000   2469.3912     -21.165217     -22.441993     -22.441993      1.2767755    
    801000   2449.8056     -20.964143     -22.230792     -22.230792      1.2666489    
    802000   2438.5094     -21.176532     -22.437341     -22.437341      1.2608083    
    803000   2479.0708     -21.309057     -22.590837     -22.590837      1.2817802    
    804000   2422.5566     -21.231961     -22.484521     -22.484521      1.2525601    
    805000   2273.5571     -20.971414     -22.146935     -22.146935      1.1755213    
    806000   2354.006      -21.076504     -22.293621     -22.293621      1.2171166    
    807000   2503.549      -21.076192     -22.370628     -22.370628      1.2944364    
    808000   2533.3386     -20.965021     -22.27486      -22.27486       1.3098388    
    809000   2439.5301     -21.217134     -22.47847      -22.47847       1.261336     
    810000   2442.7396     -21.331856     -22.594852     -22.594852      1.2629955    
    811000   2386.7403     -21.185813     -22.419855     -22.419855      1.2340416    
    812000   2360.0458     -20.808232     -22.028472     -22.028472      1.2202395    
    813000   2476.5296     -21.09109      -22.371556     -22.371556      1.2804663    
    814000   2493.487      -21.202605     -22.491839     -22.491839      1.289234     
    815000   2511.6225     -21.128582     -22.427193     -22.427193      1.2986107    
    816000   2369.7166     -21.100455     -22.325695     -22.325695      1.2252396    
    817000   2357.9919     -21.154982     -22.37416      -22.37416       1.2191775    
    818000   2456.9236     -21.030617     -22.300946     -22.300946      1.2703292    
    819000   2554.1604     -20.871814     -22.192419     -22.192419      1.3206046    
    820000   2472.0779     -21.19793      -22.476094     -22.476094      1.2781646    
    821000   2473.3544     -21.291282     -22.570106     -22.570106      1.2788246    
    822000   2418.4829     -21.154508     -22.404962     -22.404962      1.2504538    
    823000   2400.148      -20.720721     -21.961695     -21.961695      1.2409739    
    824000   2525.1009     -21.037535     -22.343115     -22.343115      1.3055796    
    825000   2515.3335     -21.175711     -22.476241     -22.476241      1.3005295    
    826000   2526.8849     -21.12754      -22.434042     -22.434042      1.3065021    
    827000   2376.9066     -21.058367     -22.287324     -22.287324      1.2289571    
    828000   2414.8617     -21.050896     -22.299478     -22.299478      1.2485815    
    829000   2498.202      -20.987731     -22.279403     -22.279403      1.2916718    
    830000   2596.8143     -20.771527     -22.114185     -22.114185      1.3426584    
    831000   2495.1464     -21.120871     -22.410963     -22.410963      1.2900919    
    832000   2479.7851     -21.128053     -22.410202     -22.410202      1.2821495    
    833000   2454.3548     -21.055627     -22.324628     -22.324628      1.269001     
    834000   2443.6819     -20.688788     -21.952271     -21.952271      1.2634827    
    835000   2548.0198     -20.935185     -22.252615     -22.252615      1.3174296    
    836000   2572.5926     -21.054083     -22.384218     -22.384218      1.3301348    
    837000   2567.5666     -20.964315     -22.291851     -22.291851      1.3275361    
    838000   2431.712      -21.037872     -22.295166     -22.295166      1.2572938    
    839000   2459.5331     -20.917964     -22.189642     -22.189642      1.2716784    
    840000   2529.7141     -20.900621     -22.208586     -22.208586      1.3079648    
    841000   2520.4236     -20.654676     -21.957838     -21.957838      1.3031613    
    842000   2582.9889     -20.942649     -22.278159     -22.278159      1.3355101    
    843000   2604.2455     -21.173169     -22.51967      -22.51967       1.3465006    
    844000   2548.4796     -20.948135     -22.265802     -22.265802      1.3176674    
    845000   2411.4474     -20.922937     -22.169753     -22.169753      1.2468162    
    846000   2498.7629     -20.876792     -22.168754     -22.168754      1.2919618    
    847000   2635.0474     -20.997112     -22.359539     -22.359539      1.3624264    
    848000   2589.2127     -20.743879     -22.082607     -22.082607      1.338728     
    849000   2599.934      -21.062159     -22.406431     -22.406431      1.3442714    
    850000   2555.4441     -21.3414       -22.662668     -22.662668      1.3212683    
    851000   2536.9282     -21.070649     -22.382344     -22.382344      1.3116948    
    852000   2453.8245     -20.764601     -22.033327     -22.033327      1.2687269    
    853000   2576.6532     -20.911761     -22.243995     -22.243995      1.3322343    
    854000   2657.4143     -21.193647     -22.567638     -22.567638      1.373991     
    855000   2645.3813     -20.978235     -22.346004     -22.346004      1.3677695    
    856000   2537.4535     -21.08461      -22.396577     -22.396577      1.3119665    
    857000   2514.5889     -21.29279      -22.592934     -22.592934      1.3001445    
    858000   2518.2597     -21.041364     -22.343406     -22.343406      1.3020424    
    859000   2570.6985     -20.684912     -22.014067     -22.014067      1.3291554    
    860000   2627.7497     -21.100442     -22.459095     -22.459095      1.3586533    
    861000   2679.0311     -21.158502     -22.54367      -22.54367       1.3851678    
[...]
   1890000   628.18239     -24.481124     -24.805919     -24.805919      0.32479579   
   1891000   616.14134     -24.539006     -24.857576     -24.857576      0.31857008   
   1892000   616.04575     -24.558359     -24.876879     -24.876879      0.31852065   
   1893000   620.58411     -24.582533     -24.9034       -24.9034        0.32086717   
   1894000   621.73211     -24.594888     -24.916348     -24.916348      0.32146073   
   1895000   623.1353      -24.556971     -24.879157     -24.879157      0.32218624   
   1896000   621.82766     -24.51883      -24.84034      -24.84034       0.32151013   
   1897000   608.47515     -24.525417     -24.840023     -24.840023      0.31460635   
   1898000   600.40058     -24.535197     -24.845628     -24.845628      0.31043147   
   1899000   596.66374     -24.560737     -24.869237     -24.869237      0.30849936   
   1900000   595.25128     -24.59899      -24.906759     -24.906759      0.30776907   
   1901000   596.17577     -24.607132     -24.915379     -24.915379      0.30824707   
   1902000   600.35702     -24.588678     -24.899087     -24.899087      0.31040894   
   1903000   597.04591     -24.573018     -24.881715     -24.881715      0.30869696   
   1904000   589.73345     -24.559223     -24.864139     -24.864139      0.30491613   
   1905000   581.57189     -24.55091      -24.851607     -24.851607      0.30069627   
   1906000   578.42975     -24.576569     -24.875641     -24.875641      0.29907165   
   1907000   572.62157     -24.601182     -24.89725      -24.89725       0.29606859   
   1908000   570.28621     -24.622127     -24.916988     -24.916988      0.29486111   
   1909000   580.08442     -24.63283      -24.932757     -24.932757      0.29992719   
   1910000   578.08176     -24.606217     -24.905108     -24.905108      0.29889173   
   1911000   568.8264      -24.578388     -24.872494     -24.872494      0.29410633   
   1912000   565.49936     -24.576092     -24.868478     -24.868478      0.29238612   
   1913000   557.75036     -24.58342      -24.871799     -24.871799      0.28837957   
   1914000   549.78182     -24.590957     -24.875216     -24.875216      0.28425951   
   1915000   544.59513     -24.634319     -24.915897     -24.915897      0.28157778   
   1916000   552.64185     -24.66409      -24.949828     -24.949828      0.28573826   
   1917000   555.58764     -24.645415     -24.932677     -24.932677      0.28726136   
   1918000   552.35996     -24.622221     -24.907813     -24.907813      0.28559251   
   1919000   550.42421     -24.607908     -24.892499     -24.892499      0.28459165   
   1920000   540.93627     -24.589361     -24.869047     -24.869047      0.279686     
   1921000   527.59314     -24.602407     -24.875194     -24.875194      0.27278706   
   1922000   526.1028      -24.648814     -24.92083      -24.92083       0.2720165    
   1923000   527.46676     -24.670852     -24.943574     -24.943574      0.27272172   
   1924000   527.51433     -24.670563     -24.94331      -24.94331       0.27274632   
   1925000   529.04651     -24.671136     -24.944675     -24.944675      0.27353852   
   1926000   530.18168     -24.657272     -24.931397     -24.931397      0.27412544   
   1927000   523.28149     -24.621931     -24.892489     -24.892489      0.27055776   
   1928000   512.85981     -24.627648     -24.892817     -24.892817      0.26516933   
   1929000   508.91887     -24.65671      -24.919842     -24.919842      0.26313171   
   1930000   509.13917     -24.653353     -24.916598     -24.916598      0.26324561   
   1931000   500.38064     -24.664026     -24.922744     -24.922744      0.2587171    
   1932000   498.05237     -24.700912     -24.958425     -24.958425      0.25751329   
   1933000   504.49523     -24.720573     -24.981417     -24.981417      0.26084451   
   1934000   506.45319     -24.659157     -24.921014     -24.921014      0.26185685   
   1935000   491.81405     -24.648859     -24.903147     -24.903147      0.25428782   
   1936000   497.27186     -24.680996     -24.938105     -24.938105      0.25710973   
   1937000   495.28541     -24.653238     -24.909321     -24.909321      0.25608266   
   1938000   472.14696     -24.667316     -24.911435     -24.911435      0.24411914   
   1939000   474.668       -24.757015     -25.002438     -25.002438      0.24542262   
   1940000   479.66155     -24.726893     -24.974897     -24.974897      0.24800449   
   1941000   489.24202     -24.71357      -24.966528     -24.966528      0.25295798   
   1942000   471.85494     -24.638178     -24.882146     -24.882146      0.24396815   
   1943000   466.29159     -24.659217     -24.900308     -24.900308      0.24109167   
   1944000   473.60492     -24.645355     -24.890228     -24.890228      0.24487296   
   1945000   460.26917     -24.663834     -24.901812     -24.901812      0.23797784   
   1946000   459.8792      -24.767464     -25.00524      -25.00524       0.23777621   
   1947000   463.06701     -24.599614     -24.839038     -24.839038      0.23942444   
   1948000   460.81024     -24.636581     -24.874838     -24.874838      0.23825759   
   1949000   457.83398     -24.705985     -24.942704     -24.942704      0.23671875   
   1950000   476.41541     -24.570484     -24.81681      -24.81681       0.2463261    
   1951000   440.5526      -24.735089     -24.962873     -24.962873      0.22778357   
   1952000   449.53713     -24.80908      -25.041509     -25.041509      0.23242894   
   1953000   452.16016     -24.714229     -24.948014     -24.948014      0.23378515   
   1954000   461.60256     -24.515724     -24.754391     -24.754391      0.23866726   
   1955000   437.13295     -24.64422      -24.870235     -24.870235      0.22601547   
   1956000   435.42594     -24.790011     -25.015144     -25.015144      0.22513288   
   1957000   441.09661     -24.787473     -25.015538     -25.015538      0.22806485   
   1958000   357.79661     -24.752474     -24.937469     -24.937469      0.18499536   
   1959000   383.31051     -24.803617     -25.001804     -25.001804      0.19818709   
   1960000   397.39827     -24.782285     -24.987756     -24.987756      0.20547103   
   1961000   423.19919     -24.734087     -24.952898     -24.952898      0.21881116   
   1962000   432.55867     -24.889629     -25.11328      -25.11328       0.22365038   
   1963000   426.74234     -24.768085     -24.988728     -24.988728      0.22064311   
   1964000   378.4865      -24.675397     -24.87109      -24.87109       0.19569288   
   1965000   442.57241     -24.764259     -24.993087     -24.993087      0.22882789   
   1966000   379.51451     -24.693754     -24.889979     -24.889979      0.1962244    
   1967000   448.48049     -24.617794     -24.849676     -24.849676      0.23188261   
   1968000   439.9951      -24.65229      -24.879785     -24.879785      0.22749532   
   1969000   402.19577     -24.713888     -24.921839     -24.921839      0.20795153   
   1970000   387.50702     -24.817391     -25.017748     -25.017748      0.20035686   
   1971000   429.29268     -24.841863     -25.063825     -25.063825      0.22196174   
   1972000   407.15086     -24.642102     -24.852616     -24.852616      0.21051351   
   1973000   327.89121     -24.540788     -24.710321     -24.710321      0.16953306   
   1974000   377.32568     -24.898513     -25.093606     -25.093606      0.19509269   
   1975000   386.08506     -24.845899     -25.04552      -25.04552       0.19962164   
   1976000   321.57334     -24.336649     -24.502916     -24.502916      0.16626647   
   1977000   370.99388     -24.713827     -24.905646     -24.905646      0.19181889   
   1978000   370.09557     -24.893569     -25.084923     -25.084923      0.19135443   
   1979000   360.27809     -24.858626     -25.044905     -25.044905      0.18627839   
   1980000   367.37514     -24.824496     -25.014444     -25.014444      0.18994785   
   1981000   359.1098      -24.722487     -24.908162     -24.908162      0.18567434   
   1982000   330.01753     -24.686968     -24.857601     -24.857601      0.17063246   
   1983000   356.44547     -24.93177      -25.116067     -25.116067      0.18429677   
   1984000   354.5734      -24.760969     -24.944298     -24.944298      0.18332883   
   1985000   283.97352     -24.774088     -24.920913     -24.920913      0.14682583   
   1986000   317.12913     -24.846141     -25.01011      -25.01011       0.16396863   
   1987000   323.56341     -24.839993     -25.007288     -25.007288      0.16729541   
   1988000   357.82737     -24.802871     -24.987883     -24.987883      0.18501127   
   1989000   363.58953     -24.84756      -25.03555      -25.03555       0.18799054   
   1990000   326.32512     -24.917375     -25.086099     -25.086099      0.16872333   
   1991000   354.30441     -24.852671     -25.035861     -25.035861      0.18318976   
   1992000   357.19153     -24.68339      -24.868073     -24.868073      0.18468252   
   1993000   293.20219     -24.740027     -24.891624     -24.891624      0.15159743   
   1994000   303.70903     -24.902275     -25.059304     -25.059304      0.15702989   
   1995000   291.93977     -24.794279     -24.945223     -24.945223      0.15094471   
   1996000   330.91956     -24.881983     -25.053082     -25.053082      0.17109884   
   1997000   283.324       -24.948329     -25.094819     -25.094819      0.14649      
   1998000   295.28629     -24.946843     -25.099518     -25.099518      0.152675     
   1999000   314.16194     -24.937248     -25.099683     -25.099683      0.16243447   
   2000000   300.9892      -24.945587     -25.101211     -25.101211      0.15562363   
   2001000   341.37493     -24.765362     -24.941867     -24.941867      0.17650469   
   2002000   286.75591     -24.743274     -24.891539     -24.891539      0.14826444   
   2003000   336.16011     -24.738329     -24.912138     -24.912138      0.17380842   
   2004000   261.94022     -24.740221     -24.875655     -24.875655      0.13543372   
   2005000   257.59902     -24.832421     -24.96561      -24.96561       0.13318914   
   2006000   271.21458     -24.972508     -25.112737     -25.112737      0.14022894   
   2007000   292.71326     -24.932092     -25.083437     -25.083437      0.15134463   
   2008000   324.08232     -24.852013     -25.019576     -25.019576      0.16756371   
   2009000   283.64941     -24.715979     -24.862638     -24.862638      0.14665825   
   2010000   265.43828     -24.810859     -24.948102     -24.948102      0.13724236   
   2011000   272.17628     -24.913318     -25.054044     -25.054044      0.14072618   
   2012000   247.08448     -24.899249     -25.027002     -25.027002      0.1277527    
   2013000   287.65189     -24.808156     -24.956884     -24.956884      0.1487277    
   2014000   273.45142     -24.749501     -24.890887     -24.890887      0.14138548   
   2015000   243.11089     -24.916195     -25.041893     -25.041893      0.1256982    
   2016000   242.84899     -24.914729     -25.040291     -25.040291      0.12556278   
   2017000   258.1469      -24.893636     -25.027109     -25.027109      0.13347242   
   2018000   244.08605     -24.887938     -25.01414      -25.01414       0.12620239   
   2019000   246.46456     -24.941686     -25.069118     -25.069118      0.12743218   
   2020000   225.14122     -24.948616     -25.065023     -25.065023      0.11640715   
   2021000   209.62316     -24.96326      -25.071643     -25.071643      0.10838368   
   2022000   229.12583     -25.002183     -25.120651     -25.120651      0.11846735   
   2023000   220.23151     -24.964532     -25.0784       -25.0784        0.11386863   
   2024000   234.16202     -24.913714     -25.034785     -25.034785      0.12107127   
   2025000   237.81029     -24.967745     -25.090702     -25.090702      0.12295757   
   2026000   216.8171      -24.821322     -24.933425     -24.933425      0.11210324   
   2027000   212.23685     -24.916804     -25.026539     -25.026539      0.10973507   
   2028000   211.41505     -24.990337     -25.099647     -25.099647      0.10931016   
   2029000   219.95814     -24.984004     -25.097731     -25.097731      0.11372728   
   2030000   221.15832     -24.984823     -25.099171     -25.099171      0.11434782   
   2031000   230.75372     -24.979148     -25.098457     -25.098457      0.11930904   
   2032000   206.31322     -24.905603     -25.012275     -25.012275      0.10667231   
   2033000   189.16833     -24.947459     -25.045267     -25.045267      0.097807705  
   2034000   211.61501     -24.884881     -24.994294     -24.994294      0.10941355   
   2035000   187.95464     -24.898575     -24.995755     -24.995755      0.097180175  
   2036000   178.50387     -24.986925     -25.079219     -25.079219      0.092293744  
   2037000   188.21369     -24.99975      -25.097064     -25.097064      0.097314117  
   2038000   189.45685     -25.003769     -25.101726     -25.101726      0.097956881  
   2039000   199.07969     -24.97836      -25.081292     -25.081292      0.10293228   
   2040000   166.15175     -24.948882     -25.034789     -25.034789      0.085907197  
   2041000   152.45973     -24.962833     -25.041661     -25.041661      0.078827869  
   2042000   145.57959     -24.863401     -24.938672     -24.938672      0.075270555  
   2043000   171.6402      -24.898867     -24.987612     -24.987612      0.088744948  
   2044000   161.99723     -24.979212     -25.062971     -25.062971      0.08375914   
   2045000   161.83359     -25.059179     -25.142853     -25.142853      0.083674532  
   2046000   166.75176     -25.05855      -25.144768     -25.144768      0.086217427  
   2047000   166.3461      -25.063591     -25.149599     -25.149599      0.086007687  
   2048000   156.27815     -25.017445     -25.098248     -25.098248      0.080802145  
   2049000   143.99431     -25.046784     -25.121235     -25.121235      0.0744509    
   2050000   137.93784     -25.049662     -25.120982     -25.120982      0.071319459  
   2051000   161.08924     -25.058454     -25.141744     -25.141744      0.083289675  
   2052000   154.40597     -25.012601     -25.092435     -25.092435      0.079834152  
   2053000   127.4041      -24.995242     -25.061115     -25.061115      0.065873088  
   2054000   127.61404     -24.990676     -25.056657     -25.056657      0.065981637  
   2055000   134.01998     -24.989186     -25.05848      -25.05848       0.069293768  
   2056000   120.34529     -25.044137     -25.10636      -25.10636       0.062223398  
   2057000   126.13271     -25.041531     -25.106747     -25.106747      0.065215731  
   2058000   117.99067     -25.06146      -25.122466     -25.122466      0.061005966  
   2059000   122.82887     -25.066687     -25.130195     -25.130195      0.063507511  
   2060000   121.76523     -25.05411      -25.117068     -25.117068      0.062957566  
   2061000   114.14909     -25.054149     -25.113169     -25.113169      0.059019711  
   2062000   90.079565     -25.015938     -25.062513     -25.062513      0.04657479   
   2063000   101.41806     -25.065984     -25.118422     -25.118422      0.052437255  
   2064000   115.99773     -25.064239     -25.124215     -25.124215      0.059975533  
   2065000   104.66817     -25.090553     -25.14467      -25.14467       0.054117693  
   2066000   115.89779     -25.058887     -25.118811     -25.118811      0.059923858  
   2067000   101.03383     -25.065141     -25.11738      -25.11738       0.052238589  
   2068000   102.50904     -25.085725     -25.138726     -25.138726      0.053001332  
   2069000   90.897899     -25.07475      -25.121748     -25.121748      0.046997902  
   2070000   87.893098     -25.084685     -25.13013      -25.13013       0.045444298  
   2071000   94.364168     -25.10233      -25.15112      -25.15112       0.048790104  
   2072000   89.756656     -24.998712     -25.04512      -25.04512       0.046407834  
   2073000   83.319076     -25.05989      -25.102969     -25.102969      0.043079343  
   2074000   74.838716     -25.088001     -25.126695     -25.126695      0.038694653  
   2075000   73.766294     -25.089072     -25.127212     -25.127212      0.038140167  
   2076000   72.078383     -25.060678     -25.097945     -25.097945      0.037267449  
   2077000   66.037193     -25.071112     -25.105256     -25.105256      0.034143909  
   2078000   69.244381     -25.097837     -25.133639     -25.133639      0.035802155  
   2079000   61.861113     -25.088746     -25.12073      -25.12073       0.031984706  
   2080000   48.870612     -25.091781     -25.117049     -25.117049      0.02526809   
   2081000   64.132476     -25.118733     -25.151892     -25.151892      0.033159093  
   2082000   55.082275     -25.131273     -25.159753     -25.159753      0.028479771  
   2083000   53.563967     -25.124231     -25.151926     -25.151926      0.027694745  
   2084000   47.39588      -25.133288     -25.157794     -25.157794      0.024505593  
   2085000   44.790633     -25.133256     -25.156415     -25.156415      0.023158575  
   2086000   43.812828     -25.128158     -25.150811     -25.150811      0.02265301   
   2087000   35.890657     -25.113658     -25.132215     -25.132215      0.018556926  
   2088000   39.278526     -25.121747     -25.142056     -25.142056      0.020308592  
   2089000   32.335581     -25.122762     -25.13948      -25.13948       0.016718808  
   2090000   33.829406     -25.151049     -25.16854      -25.16854       0.017491176  
   2091000   29.647769     -25.15453      -25.169859     -25.169859      0.0153291    
   2092000   24.943767     -25.154802     -25.167699     -25.167699      0.01289694   
   2093000   21.12457      -25.145862     -25.156784     -25.156784      0.01092226   
   2094000   18.108393     -25.152654     -25.162017     -25.162017      0.0093627743 
   2095000   15.042646     -25.150152     -25.157929     -25.157929      0.0077776586 
   2096000   12.265175     -25.162112     -25.168454     -25.168454      0.0063415934 
   2097000   8.8957805     -25.166452     -25.171051     -25.171051      0.0045994795 
   2098000   5.5443276     -25.168858     -25.171725     -25.171725      0.0028666424 
   2099000   3.0825571     -25.170932     -25.172526     -25.172526      0.0015938071 
   2100000   0.21240165    -25.173121     -25.173231     -25.173231      0.00010982027
   2100040   0.04572219    -25.173281     -25.173305     -25.173305      2.3640228e-05
Loop time of 6.78301 on 1 procs for 1000000 steps with 5 atoms

Performance: 1273.771 ns/day, 0.019 hours/ns, 147427.188 timesteps/s, 737.136 katom-step/s
96.7% CPU use with 1 MPI tasks x 1 OpenMP threads

MPI task timing breakdown:
Section |  min time  |  avg time  |  max time  |%varavg| %total
---------------------------------------------------------------
Pair    | 3.9987     | 3.9987     | 3.9987     |   0.0 | 58.95
Neigh   | 0.81029    | 0.81029    | 0.81029    |   0.0 | 11.95
Comm    | 0.56898    | 0.56898    | 0.56898    |   0.0 |  8.39
Output  | 0.26318    | 0.26318    | 0.26318    |   0.0 |  3.88
Modify  | 0.86736    | 0.86736    | 0.86736    |   0.0 | 12.79
Other   |            | 0.2745     |            |       |  4.05

Nlocal:              5 ave           5 max           5 min
Histogram: 1 0 0 0 0 0 0 0 0 0
Nghost:            106 ave         106 max         106 min
Histogram: 1 0 0 0 0 0 0 0 0 0
Neighs:              0 ave           0 max           0 min
Histogram: 1 0 0 0 0 0 0 0 0 0
FullNghs:           32 ave          32 max          32 min
Histogram: 1 0 0 0 0 0 0 0 0 0

Total # of neighbors = 32
Ave neighs/atom = 6.4
Neighbor list builds = 13456
Dangerous builds = 0
write_restart 	./endconf/endconf*3.restart
System init for write_restart ...

Total wall time: 0:00:13
