LAMMPS (7 Feb 2024 - Update 1)
OMP_NUM_THREADS environment is not set. Defaulting to 1 thread. (src/comm.cpp:98)
  using 1 OpenMP thread(s) per MPI task
#============Initialization=================
units 			metal
atom_style 		atomic
boundary 		p p p

############################################
#              CLI Variables               #
############################################
variable 		seed index 200093          #
variable 		N index 9                  #
variable 		iter index 1000000         #
variable 		iterther index 100000      #
variable 		iexport index 1000         #
variable 		tempchauf index 3000       #
variable 		Tdamp index 0.001          #
variable 		timestep index 0.0001      #
variable 		box_size index 40		   #
############################################
############################################

#=========Simulation box definition=========
lattice 		sc 1.0
Lattice spacing in x,y,z = 1 1 1
region 			bigbox block 0 ${box_size} 0 ${box_size} 0 ${box_size}
region 			bigbox block 0 40 0 ${box_size} 0 ${box_size}
region 			bigbox block 0 40 0 40 0 ${box_size}
region 			bigbox block 0 40 0 40 0 40
create_box 		1 bigbox
Created orthogonal box = (0 0 0) to (40 40 40)
  1 by 1 by 1 MPI processor grid

#==================Atoms====================
region 			safezone block 6 9 6 9 6 9 units box
create_atoms 	1 random ${N} ${seed} safezone
create_atoms 	1 random 9 ${seed} safezone
create_atoms 	1 random 9 200093 safezone
Created 9 atoms
  using lattice units in orthogonal box = (0 0 0) to (40 40 40)
  create_atoms CPU = 0.000 seconds
mass 			* 12.01


#==========Velocity initialization==========
velocity 		all create 0.0000001 1563967 rot yes dist gaussian

#======Pair style for atom interactions=============
pair_style 		airebo 1.8 1 1
pair_coeff 		* * CH.airebo C
Reading airebo potential file CH.airebo with DATE: 2011-10-25

#==============Neighbor selection===================
neighbor 		0.3 bin
neigh_modify 	every 1 delay 0 check yes


#=====================Timestep======================
timestep 		${timestep}
timestep 		0.0001

#===============Define dump command=================
dump 			1 all cfg 100000 ./dump/dump.tensile_*.cfg mass type xs ys zs vx vy vz id

#========System temperature printing info===========
thermo_style 	custom step temp etotal epair pe ke
thermo 			${iexport}	# 1'000'000
thermo 			1000	


#====================CRC Cycle======================

#=============Condensation et chauffe===============
fix 			1 all nve
fix 			2 all temp/berendsen 0.0 ${tempchauf} ${Tdamp}
fix 			2 all temp/berendsen 0.0 3000 ${Tdamp}
fix 			2 all temp/berendsen 0.0 3000 0.001
fix             3 all momentum 1 linear 1 1 1 angular rescale

run 			${iter}
run 			1000000
Neighbor list info ...
  update: every = 1 steps, delay = 0 steps, check = yes
  max neighbors/atom: 2000, page size: 100000
  master list distance cutoff = 8.116371
  ghost atom cutoff = 8.116371
  binsize = 4.0581855, bins = 10 10 10
  1 neighbor lists, perpetual/occasional/extra = 1 0 0
  (1) pair airebo, perpetual
      attributes: full, newton on, ghost
      pair build: full/bin/ghost
      stencil: full/ghost/bin/3d
      bin: standard
Per MPI rank memory allocation (min/avg/max) = 3.888 | 3.888 | 3.888 Mbytes
   Step          Temp          TotEng         E_pair         PotEng         KinEng    
         0   1e-07          1527.6076      1527.6076      1527.6076      1.0340812e-10
      1000   21.503931     -41.139332     -41.161569     -41.161569      0.02223681   
      2000   7.4298891     -41.716905     -41.724588     -41.724588      0.0076831083 
      3000   9.1228384     -41.807625     -41.817058     -41.817058      0.0094337554 
      4000   11.943868     -41.798348     -41.810699     -41.810699      0.012350929  
      5000   14.24833      -41.764421     -41.779155     -41.779155      0.01473393   
      6000   18.041361     -41.767114     -41.78577      -41.78577       0.018656231  
      7000   21.934177     -41.781749     -41.80443      -41.80443       0.02268172   
      8000   24.143534     -41.78145      -41.806417     -41.806417      0.024966374  
      9000   27.329289     -41.757953     -41.786214     -41.786214      0.028260703  
     10000   29.40329      -41.755933     -41.786338     -41.786338      0.030405388  
     11000   33.076614     -41.744457     -41.778661     -41.778661      0.034203903  
     12000   37.605777     -41.760396     -41.799284     -41.799284      0.038887425  
     13000   39.658803     -41.732777     -41.773787     -41.773787      0.041010421  
     14000   42.095225     -41.749701     -41.793231     -41.793231      0.043529879  
     15000   44.381113     -41.717257     -41.763151     -41.763151      0.045893673  
     16000   47.819614     -41.754679     -41.804129     -41.804129      0.049449362  
     17000   51.824736     -41.723612     -41.777203     -41.777203      0.053590984  
     18000   54.607942     -41.746268     -41.802737     -41.802737      0.056469044  
     19000   58.08304      -41.711001     -41.771064     -41.771064      0.060062578  
     20000   54.060769     -47.068768     -47.124672     -47.124672      0.055903223  
     21000   65.429722     -47.172122     -47.239782     -47.239782      0.067659643  
     22000   66.268481     -47.081327     -47.149854     -47.149854      0.068526987  
     23000   66.436798     -47.131423     -47.200124     -47.200124      0.068701041  
     24000   71.047754     -47.077387     -47.150856     -47.150856      0.073469144  
     25000   72.967905     -47.09448      -47.169935     -47.169935      0.075454736  
     26000   75.153756     -47.112646     -47.190362     -47.190362      0.077715083  
     27000   85.791927     -47.054204     -47.14292      -47.14292       0.088715816  
     28000   86.793093     -47.060242     -47.149993     -47.149993      0.089751102  
     29000   88.135049     -47.122945     -47.214084     -47.214084      0.091138793  
     30000   89.530705     -47.054615     -47.147197     -47.147197      0.092582015  
     31000   99.630454     -47.074943     -47.177969     -47.177969      0.10302598   
     32000   96.915533     -47.08216      -47.182378     -47.182378      0.10021853   
     33000   98.824598     -47.054139     -47.156332     -47.156332      0.10219266   
     34000   103.42285     -47.034173     -47.141121     -47.141121      0.10694762   
     35000   103.7011      -47.065968     -47.173203     -47.173203      0.10723535   
     36000   108.92993     -47.07877      -47.191413     -47.191413      0.11264239   
     37000   112.77422     -47.028411     -47.145029     -47.145029      0.1166177    
     38000   114.37438     -47.059133     -47.177406     -47.177406      0.11827239   
     39000   122.10306     -47.046725     -47.17299      -47.17299       0.12626447   
     40000   113.14684     -46.951443     -47.068446     -47.068446      0.11700302   
     41000   118.33692     -47.029174     -47.151544     -47.151544      0.12236998   
     42000   121.19702     -46.895582     -47.02091      -47.02091       0.12532756   
     43000   127.92875     -46.972425     -47.104714     -47.104714      0.13228871   
     44000   133.08236     -46.962858     -47.100476     -47.100476      0.13761796   
     45000   131.16092     -47.009322     -47.144953     -47.144953      0.13563104   
     46000   139.35814     -46.973755     -47.117863     -47.117863      0.14410763   
     47000   138.78914     -47.044765     -47.188284     -47.188284      0.14351924   
     48000   144.65691     -47.00019      -47.149777     -47.149777      0.14958698   
     49000   153.44283     -46.974487     -47.133159     -47.133159      0.15867234   
     50000   146.31395     -46.991337     -47.142638     -47.142638      0.1513005    
     51000   156.12759     -46.994789     -47.156238     -47.156238      0.1614486    
     52000   168.37358     -46.873355     -47.047467     -47.047467      0.17411195   
     53000   155.80587     -46.929505     -47.090621     -47.090621      0.16111592   
     54000   159.75127     -46.928092     -47.093288     -47.093288      0.16519578   
     55000   172.29448     -46.822557     -47.000724     -47.000724      0.17816647   
     56000   174.50549     -46.994197     -47.17465      -47.17465       0.18045284   
     57000   159.16864     -46.906716     -47.07131      -47.07131       0.1645933    
     58000   177.29179     -46.868733     -47.052067     -47.052067      0.1833341    
     59000   176.8113      -46.911961     -47.094798     -47.094798      0.18283723   
     60000   176.35522     -46.930462     -47.112828     -47.112828      0.18236562   
     61000   180.77731     -46.824218     -47.011157     -47.011157      0.18693841   
     62000   187.34297     -47.000019     -47.193747     -47.193747      0.19372783   
     63000   193.07571     -46.831863     -47.031519     -47.031519      0.19965596   
     64000   189.64836     -46.972428     -47.16854      -47.16854       0.1961118    
     65000   189.24094     -46.850063     -47.045753     -47.045753      0.19569049   
     66000   200.53925     -46.906571     -47.113945     -47.113945      0.20737386   
     67000   199.99608     -46.677616     -46.884428     -46.884428      0.20681218   
     68000   207.25193     -46.93388      -47.148196     -47.148196      0.21431532   
     69000   199.389       -46.732845     -46.939029     -46.939029      0.20618441   
     70000   211.43499     -46.968407     -47.187048     -47.187048      0.21864094   
     71000   214.8046      -46.67089      -46.893016     -46.893016      0.22212539   
     72000   206.03101     -46.899363     -47.112416     -47.112416      0.21305279   
     73000   235.8998      -46.625366     -46.869306     -46.869306      0.24393953   
     74000   223.18238     -46.899811     -47.130599     -47.130599      0.23078869   
     75000   230.19917     -46.830852     -47.068897     -47.068897      0.23804462   
     76000   222.37682     -46.860736     -47.090692     -47.090692      0.22995568   
     77000   234.62481     -46.673697     -46.916318     -46.916318      0.24262109   
     78000   230.28889     -46.875829     -47.113967     -47.113967      0.2381374    
     79000   245.09737     -46.667048     -46.920499     -46.920499      0.25345058   
     80000   242.22454     -46.863422     -47.113902     -47.113902      0.25047983   
     81000   247.79057     -46.76895      -47.025186     -47.025186      0.25623556   
     82000   242.25445     -46.824877     -47.075387     -47.075387      0.25051076   
     83000   248.2629      -46.884548     -47.141272     -47.141272      0.25672399   
     84000   256.7615      -46.776073     -47.041585     -47.041585      0.26551223   
     85000   253.87613     -46.775925     -47.038454     -47.038454      0.26252852   
     86000   261.53265     -46.786023     -47.056469     -47.056469      0.27044598   
     87000   259.95564     -46.80908      -47.077895     -47.077895      0.26881523   
     88000   265.67246     -46.619798     -46.894525     -46.894525      0.27472689   
     89000   271.79887     -46.810839     -47.091901     -47.091901      0.28106209   
     90000   277.15159     -46.555362     -46.841959     -46.841959      0.28659724   
     91000   271.44179     -46.79148      -47.072173     -47.072173      0.28069284   
     92000   257.2192      -46.309107     -46.575093     -46.575093      0.26598553   
     93000   291.92953     -46.735345     -47.037224     -47.037224      0.30187883   
     94000   284.14456     -46.511863     -46.805691     -46.805691      0.29382854   
     95000   280.89891     -46.82729      -47.117762     -47.117762      0.29047227   
     96000   281.3307      -46.341991     -46.63291      -46.63291       0.29091878   
     97000   298.63983     -46.820261     -47.129079     -47.129079      0.30881782   
     98000   290.42705     -46.503438     -46.803764     -46.803764      0.30032514   
     99000   311.78274     -46.739339     -47.061747     -47.061747      0.32240865   
    100000   308.39351     -46.615544     -46.934448     -46.934448      0.31890391   
    101000   302.58135     -46.634178     -46.947071     -46.947071      0.31289367   
    102000   309.87713     -46.619992     -46.94043      -46.94043       0.3204381    
    103000   315.1797      -46.591995     -46.917917     -46.917917      0.32592138   
    104000   315.24467     -46.615881     -46.94187      -46.94187       0.32598858   
    105000   310.78488     -46.59619      -46.917567     -46.917567      0.32137679   
    106000   306.76013     -46.651348     -46.968563     -46.968563      0.31721487   
    107000   301.63182     -46.556767     -46.868678     -46.868678      0.31191179   
    108000   322.82547     -46.792851     -47.126679     -47.126679      0.33382773   
    109000   326.37842     -46.449433     -46.786935     -46.786935      0.33750177   
    110000   331.5908      -46.768929     -47.11182      -47.11182       0.3428918    
    111000   347.81515     -46.477602     -46.837271     -46.837271      0.35966909   
    112000   340.3551      -46.595623     -46.947578     -46.947578      0.3519548    
    113000   337.38726     -46.601014     -46.9499       -46.9499        0.34888581   
    114000   346.36013     -46.429152     -46.787317     -46.787317      0.35816448   
    115000   350.05149     -46.732924     -47.094906     -47.094906      0.36198165   
    116000   351.08161     -46.540854     -46.903901     -46.903901      0.36304688   
    117000   365.31486     -46.68563      -47.063395     -47.063395      0.37776521   
    118000   345.3508      -46.48858      -46.845701     -46.845701      0.35712076   
    119000   357.89929     -46.674607     -47.044704     -47.044704      0.37009691   
    120000   367.52901     -46.43649      -46.816545     -46.816545      0.38005482   
    121000   356.16557     -46.69843      -47.066734     -47.066734      0.3683041    
    122000   371.16879     -46.550384     -46.934203     -46.934203      0.38381866   
    123000   353.37597     -46.596525     -46.961944     -46.961944      0.36541943   
    124000   362.2812      -46.603355     -46.977984     -46.977984      0.37462816   
    125000   358.57362     -46.489166     -46.85996      -46.85996       0.37079422   
    126000   376.94827     -46.579424     -46.969219     -46.969219      0.3897951    
    127000   377.42017     -46.326051     -46.716334     -46.716334      0.39028309   
    128000   367.67934     -46.667834     -47.048044     -47.048044      0.38021028   
    129000   359.58067     -45.935286     -46.307122     -46.307122      0.3718356    
    130000   396.96999     -46.584167     -46.994666     -46.994666      0.41049919   
    131000   399.24537     -46.569013     -46.981865     -46.981865      0.41285211   
    132000   380.99322     -46.141717     -46.535695     -46.535695      0.39397791   
    133000   413.51297     -46.519368     -46.946974     -46.946974      0.42760598   
    134000   408.00583     -46.299429     -46.72134      -46.72134       0.42191114   
    135000   397.55284     -46.513277     -46.924379     -46.924379      0.41110191   
    136000   387.63796     -46.256241     -46.65709      -46.65709       0.40084911   
    137000   422.5639      -46.577862     -47.014828     -47.014828      0.43696537   
    138000   396.2938      -46.309991     -46.719791     -46.719791      0.40979995   
    139000   419.7758      -46.298684     -46.732766     -46.732766      0.43408224   
    140000   420.48744     -46.491208     -46.926026     -46.926026      0.43481814   
    141000   430.42967     -46.362468     -46.807567     -46.807567      0.44509921   
    142000   441.59822     -46.539859     -46.996508     -46.996508      0.4566484    
    143000   417.05269     -46.279694     -46.71096      -46.71096       0.43126633   
    144000   426.87346     -46.549834     -46.991256     -46.991256      0.4414218    
    145000   406.79746     -46.492412     -46.913073     -46.913073      0.42066159   
    146000   462.42421     -46.336405     -46.81459      -46.81459       0.47818417   
    147000   451.63348     -46.494158     -46.961184     -46.961184      0.46702567   
    148000   447.00237     -46.30276      -46.764997     -46.764997      0.46223673   
    149000   455.8541      -46.494018     -46.965409     -46.965409      0.47139014   
    150000   467.7709      -46.358899     -46.842612     -46.842612      0.48371307   
    151000   433.5743      -46.460676     -46.909027     -46.909027      0.44835102   
    152000   473.97588     -46.396053     -46.886183     -46.886183      0.49012953   
    153000   464.04946     -45.974481     -46.454345     -46.454345      0.47986481   
    154000   449.71984     -46.528736     -46.993783     -46.993783      0.46504681   
    155000   491.97785     -46.498843     -47.007588     -47.007588      0.50874503   
    156000   469.24601     -46.331398     -46.816636     -46.816636      0.48523846   
    157000   475.72075     -46.459457     -46.951391     -46.951391      0.49193387   
    158000   445.17202     -46.240702     -46.701046     -46.701046      0.460344     
    159000   484.3304      -46.440999     -46.941836     -46.941836      0.50083694   
    160000   436.46302     -45.939306     -46.390645     -46.390645      0.45133819   
    161000   490.09491     -46.403655     -46.910453     -46.910453      0.50679792   
    162000   475.0603      -46.484356     -46.975606     -46.975606      0.49125091   
    163000   468.75903     -46.322994     -46.807729     -46.807729      0.48473488   
    164000   489.69638     -46.477702     -46.984088     -46.984088      0.5063858    
    165000   452.22959     -46.0004       -46.468043     -46.468043      0.4676421    
    166000   494.42207     -46.176045     -46.687318     -46.687318      0.51127255   
    167000   551.6376      -46.002411     -46.572849     -46.572849      0.57043805   
    168000   483.93976     -46.325354     -46.825787     -46.825787      0.50043299   
    169000   507.00395     -46.283632     -46.807915     -46.807915      0.52428324   
    170000   517.51239     -46.206558     -46.741708     -46.741708      0.53514981   
    171000   517.05345     -46.415595     -46.95027      -46.95027       0.53467523   
    172000   479.27599     -45.863476     -46.359086     -46.359086      0.49561028   
    173000   499.0363      -46.323388     -46.839432     -46.839432      0.51604404   
    174000   539.72406     -46.139539     -46.697658     -46.697658      0.55811848   
    175000   534.75278     -46.426281     -46.979259     -46.979259      0.55297778   
    176000   505.48046     -46.356109     -46.878817     -46.878817      0.52270782   
    177000   517.58223     -45.882086     -46.417308     -46.417308      0.53522203   
    178000   535.38354     -46.319806     -46.873436     -46.873436      0.55363003   
    179000   528.36252     -45.507421     -46.053791     -46.053791      0.54636973   
    180000   531.3682      -46.478276     -47.027754     -47.027754      0.54947784   
    181000   518.07269     -46.182162     -46.717891     -46.717891      0.5357292    
    182000   566.19174     -45.976962     -46.56245      -46.56245       0.58548821   
    183000   526.83628     -46.407335     -46.952126     -46.952126      0.54479147   
    184000   619.76964     -46.120622     -46.761514     -46.761514      0.64089211   
    185000   573.7324      -46.29098      -46.884266     -46.884266      0.59328587   
    186000   552.41903     -46.031747     -46.602993     -46.602993      0.57124611   
    187000   551.03665     -46.178234     -46.748051     -46.748051      0.56981662   
    188000   586.1027      -45.920922     -46.527        -46.527         0.60607776   
    189000   550.06812     -46.180733     -46.749548     -46.749548      0.56881508   
    190000   606.82804     -45.946514     -46.574023     -46.574023      0.62750944   
    191000   571.25364     -46.056259     -46.646981     -46.646981      0.59072263   
    192000   559.94426     -46.242465     -46.821492     -46.821492      0.57902781   
    193000   602.21188     -46.263766     -46.886502     -46.886502      0.62273596   
    194000   584.03934     -46.011534     -46.615478     -46.615478      0.60394408   
    195000   581.47544     -45.999968     -46.601261     -46.601261      0.6012928    
    196000   583.56116     -46.154066     -46.757515     -46.757515      0.6034496    
    197000   586.54563     -46.133426     -46.739962     -46.739962      0.60653579   
    198000   553.59266     -45.987016     -46.559476     -46.559476      0.57245974   
    199000   578.54218     -46.177321     -46.77558      -46.77558       0.59825957   
    200000   588.75436     -45.974566     -46.583386     -46.583386      0.60881979   
    201000   592.59021     -45.975333     -46.588119     -46.588119      0.61278637   
    202000   601.42417     -46.245932     -46.867853     -46.867853      0.6219214    
    203000   605.72056     -46.139002     -46.765367     -46.765367      0.62636422   
    204000   593.94021     -46.067285     -46.681468     -46.681468      0.61418238   
    205000   614.69525     -45.87022      -46.505865     -46.505865      0.63564478   
    206000   624.85586     -46.202657     -46.848809     -46.848809      0.64615167   
    207000   609.80228     -45.703689     -46.334274     -46.334274      0.63058505   
    208000   627.45672     -46.179846     -46.828687     -46.828687      0.64884117   
    209000   621.62064     -45.980277     -46.623083     -46.623083      0.64280619   
    210000   575.71051     -45.739753     -46.335084     -46.335084      0.59533139   
    211000   578.49347     -46.197868     -46.796077     -46.796077      0.59820919   
    212000   668.41741     -45.959728     -46.650926     -46.650926      0.69119785   
    213000   631.01351     -46.131977     -46.784496     -46.784496      0.65251919   
    214000   640.36605     -46.108508     -46.770698     -46.770698      0.66219047   
    215000   653.84346     -45.91661      -46.592737     -46.592737      0.67612721   
    216000   667.23378     -46.153696     -46.84367      -46.84367       0.68997388   
    217000   665.46811     -46.068878     -46.757026     -46.757026      0.68814804   
    218000   630.55275     -45.855655     -46.507698     -46.507698      0.65204272   
    219000   672.59897     -46.234055     -46.929577     -46.929577      0.69552192   
    220000   672.93781     -45.784306     -46.480178     -46.480178      0.69587231   
    221000   636.62867     -45.928971     -46.587297     -46.587297      0.65832571   
    222000   677.33472     -45.839828     -46.540247     -46.540247      0.70041908   
    223000   688.07464     -45.66542      -46.376945     -46.376945      0.71152503   
    224000   662.33846     -46.215191     -46.900102     -46.900102      0.68491172   
    225000   639.89431     -45.348666     -46.010368     -46.010368      0.66170266   
    226000   662.70424     -46.128793     -46.814083     -46.814083      0.68528997   
    227000   723.00783     -45.20541      -45.953059     -45.953059      0.74764877   
    228000   653.43773     -46.176341     -46.852049     -46.852049      0.67570765   
    229000   724.91123     -45.794373     -46.54399      -46.54399       0.74961704   
    230000   671.53341     -45.844741     -46.539161     -46.539161      0.69442005   
    231000   713.23802     -46.267522     -47.005068     -47.005068      0.73754599   
    232000   705.18084     -45.445024     -46.174238     -46.174238      0.72921422   
    233000   707.49457     -46.154066     -46.885673     -46.885673      0.73160681   
    234000   708.89635     -46.04986      -46.782916     -46.782916      0.73305636   
    235000   678.96467     -45.881517     -46.583622     -46.583622      0.70210458   
    236000   688.52318     -46.028463     -46.740452     -46.740452      0.71198885   
    237000   744.5087      -46.24008      -47.009963     -47.009963      0.76988242   
    238000   722.75472     -46.145517     -46.892904     -46.892904      0.74738704   
    239000   715.81631     -46.091992     -46.832204     -46.832204      0.74021216   
    240000   648.53117     -45.653339     -46.323973     -46.323973      0.67063387   
    241000   644.64316     -45.907513     -46.574126     -46.574126      0.66661335   
    242000   706.06647     -45.496565     -46.226695     -46.226695      0.73013003   
    243000   692.45435     -45.682817     -46.398871     -46.398871      0.716054     
    244000   754.75977     -45.662956     -46.443438     -46.443438      0.78048286   
    245000   650.55592     -45.462948     -46.135675     -46.135675      0.67272762   
    246000   721.15251     -45.969508     -46.715238     -46.715238      0.74573022   
    247000   740.90437     -45.71084      -46.476996     -46.476996      0.76615525   
    248000   753.77551     -45.494155     -46.27362      -46.27362       0.77946506   
    249000   756.73008     -46.04131      -46.823831     -46.823831      0.78252032   
    250000   750.47047     -45.560018     -46.336065     -46.336065      0.77604737   
    251000   742.91785     -45.797158     -46.565395     -46.565395      0.76823736   
    252000   785.40186     -45.651958     -46.464127     -46.464127      0.81216927   
    253000   733.77791     -45.830817     -46.589603     -46.589603      0.75878591   
    254000   744.57735     -45.8605       -46.630453     -46.630453      0.76995341   
    255000   742.51404     -45.450133     -46.217953     -46.217953      0.76781978   
    256000   779.56697     -45.915339     -46.721474     -46.721474      0.80613552   
    257000   809.38121     -45.081227     -45.918193     -45.918193      0.83696586   
    258000   824.19289     -45.741014     -46.593297     -46.593297      0.85228234   
    259000   801.24554     -45.905714     -46.734267     -46.734267      0.82855291   
    260000   756.992       -45.520463     -46.303254     -46.303254      0.78279116   
    261000   830.96111     -45.896383     -46.755664     -46.755664      0.85928123   
    262000   793.64425     -45.537036     -46.357729     -46.357729      0.82069257   
    263000   789.3244      -45.848639     -46.664864     -46.664864      0.81622549   
    264000   798.92949     -45.849215     -46.675373     -46.675373      0.82615794   
    265000   771.80472     -45.314848     -46.112957     -46.112957      0.79810872   
    266000   819.2043      -45.996459     -46.843583     -46.843583      0.84712373   
    267000   812.91501     -45.27769      -46.11831      -46.11831       0.84062009   
    268000   820.37767     -45.975073     -46.82341      -46.82341       0.84833709   
    269000   826.63968     -45.571111     -46.425923     -46.425923      0.85481252   
    270000   837.00687     -45.851561     -46.717094     -46.717094      0.86553304   
    271000   841.98205     -45.73676      -46.607438     -46.607438      0.87067778   
    272000   844.77886     -45.630922     -46.504492     -46.504492      0.8735699    
    273000   865.33595     -45.66741      -46.562238     -46.562238      0.89482761   
    274000   815.95179     -45.900916     -46.744676     -46.744676      0.84376038   
    275000   771.09811     -45.225159     -46.022537     -46.022537      0.79737802   
    276000   822.03474     -45.691274     -46.541325     -46.541325      0.85005063   
    277000   871.34057     -45.983275     -46.884312     -46.884312      0.90103686   
    278000   768.89322     -45.034745     -45.829843     -45.829843      0.79509799   
    279000   847.4387      -45.80825      -46.68457      -46.68457       0.87632039   
    280000   987.92509     -44.872409     -45.894004     -45.894004      1.0215947    
    281000   853.41091     -45.818622     -46.701118     -46.701118      0.88249614   
    282000   834.52125     -45.711065     -46.574027     -46.574027      0.8629627    
    283000   817.23888     -45.229692     -46.074783     -46.074783      0.84509133   
    284000   912.07171     -45.788322     -46.731478     -46.731478      0.94315617   
    285000   860.03724     -45.94002      -46.829368     -46.829368      0.88934831   
    286000   896.4444      -45.380362     -46.307359     -46.307359      0.92699627   
    287000   833.87817     -45.816275     -46.678573     -46.678573      0.8622977    
    288000   838.68362     -45.418207     -46.285474     -46.285474      0.86726693   
    289000   866.39839     -45.246011     -46.141937     -46.141937      0.89592625   
    290000   888.69097     -45.945258     -46.864237     -46.864237      0.91897859   
    291000   843.11416     -44.662552     -45.534401     -45.534401      0.87184846   
    292000   843.93747     -45.898044     -46.770744     -46.770744      0.87269984   
    293000   900.67431     -45.255715     -46.187086     -46.187086      0.93137034   
    294000   885.27873     -45.616042     -46.531492     -46.531492      0.91545006   
    295000   901.03725     -45.457472     -46.389218     -46.389218      0.93174564   
    296000   875.37348     -45.810055     -46.715262     -46.715262      0.90520723   
    297000   861.26678     -45.556555     -46.447175     -46.447175      0.89061975   
    298000   863.15222     -45.151237     -46.043807     -46.043807      0.89256945   
    299000   926.74565     -45.460101     -46.418431     -46.418431      0.95833022   
    300000   833.28802     -45.319633     -46.181321     -46.181321      0.86168744   
    301000   879.34906     -45.546782     -46.456101     -46.456101      0.9093183    
    302000   972.24331     -44.871204     -45.876582     -45.876582      1.0053785    
    303000   961.36829     -45.054776     -46.048908     -46.048908      0.99413283   
    304000   844.66689     -45.579144     -46.452598     -46.452598      0.87345412   
    305000   849.42182     -45.357488     -46.235859     -46.235859      0.8783711    
    306000   906.60035     -45.509293     -46.446791     -46.446791      0.93749834   
    307000   876.00798     -45.101941     -46.007805     -46.007805      0.90586335   
    308000   956.82993     -45.950212     -46.939652     -46.939652      0.9894398    
    309000   931.0974      -45.239954     -46.202784     -46.202784      0.96283028   
    310000   974.73037     -45.397951     -46.405902     -46.405902      1.0079503    
    311000   962.75905     -45.216523     -46.212094     -46.212094      0.99557099   
    312000   915.9262      -45.424903     -46.372045     -46.372045      0.94714203   
    313000   946.99079     -45.636999     -46.616264     -46.616264      0.97926533   
    314000   1043.8979     -45.478382     -46.557857     -46.557857      1.0794752    
    315000   998.93516     -45.061318     -46.094298     -46.094298      1.03298      
    316000   995.68812     -45.543484     -46.573106     -46.573106      1.0296223    
    317000   976.03736     -45.161662     -46.170963     -46.170963      1.0093018    
    318000   917.25562     -45.321477     -46.269994     -46.269994      0.94851675   
    319000   963.19216     -45.103796     -46.099815     -46.099815      0.99601887   
    320000   930.76113     -45.448679     -46.411161     -46.411161      0.96248255   
    321000   985.24479     -45.087989     -46.106812     -46.106812      1.0188231    
    322000   1015.9528     -45.397008     -46.447585     -46.447585      1.0505776    
    323000   979.73721     -45.466442     -46.47957      -46.47957       1.0131278    
    324000   1032.2964     -45.092248     -46.159726     -46.159726      1.0674782    
    325000   987.63528     -45.215722     -46.237017     -46.237017      1.021295     
    326000   888.1552      -45.571903     -46.490328     -46.490328      0.91842456   
    327000   972.76354     -45.61723      -46.623147     -46.623147      1.0059165    
    328000   1022.7989     -45.427908     -46.485565     -46.485565      1.0576571    
    329000   1026.4828     -45.119886     -46.181352     -46.181352      1.0614665    
    330000   987.13696     -45.542366     -46.563146     -46.563146      1.0207797    
    331000   1025.5293     -45.574863     -46.635344     -46.635344      1.0604805    
    332000   929.43928     -44.386449     -45.347564     -45.347564      0.96111565   
    333000   1062.4401     -45.424036     -46.522686     -46.522686      1.0986493    
    334000   1074.9432     -44.991086     -46.102665     -46.102665      1.1115785    
    335000   1054.5031     -45.369352     -46.459794     -46.459794      1.0904418    
    336000   958.58358     -44.98314      -45.974394     -45.974394      0.99125322   
    337000   937.93228     -45.605376     -46.575274     -46.575274      0.9698981    
    338000   1012.6165     -45.239536     -46.286664     -46.286664      1.0471276    
    339000   1040.1109     -45.802784     -46.878344     -46.878344      1.0755591    
    340000   1008.0087     -44.362847     -45.405209     -45.405209      1.0423628    
    341000   1083.582      -45.435384     -46.555896     -46.555896      1.1205117    
    342000   957.20005     -45.084345     -46.074168     -46.074168      0.98982253   
    343000   987.98104     -44.796289     -45.817942     -45.817942      1.0216526    
    344000   1017.9668     -45.506345     -46.559006     -46.559006      1.0526603    
    345000   1028.106      -45.26231      -46.325455     -46.325455      1.0631451    
    346000   1029.444      -45.198831     -46.26336      -46.26336       1.0645286    
    347000   1014.2543     -45.451966     -46.500788     -46.500788      1.0488213    
    348000   1012.8869     -45.254706     -46.302113     -46.302113      1.0474072    
    349000   975.68661     -45.282672     -46.291611     -46.291611      1.0089391    
    350000   1029.994      -45.107557     -46.172655     -46.172655      1.0650974    
    351000   956.8088      -45.124519     -46.113937     -46.113937      0.98941795   
    352000   1038.2341     -45.090576     -46.164194     -46.164194      1.0736183    
    353000   1075.9074     -45.363991     -46.476567     -46.476567      1.1125756    
    354000   973.84495     -45.471808     -46.478843     -46.478843      1.0070347    
    355000   1071.6743     -44.961613     -46.069812     -46.069812      1.1081982    
    356000   960.54819     -44.72708      -45.720365     -45.720365      0.99328479   
    357000   1141.6059     -45.35096      -46.531473     -46.531473      1.1805132    
    358000   1040.5406     -44.570527     -45.64653      -45.64653       1.0760034    
    359000   1103.0126     -45.125977     -46.266582     -46.266582      1.1406045    
    360000   1052.2933     -44.617358     -45.705515     -45.705515      1.0881567    
    361000   1126.1325     -45.407084     -46.571597     -46.571597      1.1645124    
    362000   1119.6332     -44.799052     -45.956844     -45.956844      1.1577916    
    363000   1010.8074     -45.190502     -46.235759     -46.235759      1.0452569    
    364000   1097.3084     -45.406338     -46.541044     -46.541044      1.1347059    
    365000   1142.9056     -43.978116     -45.159973     -45.159973      1.1818571    
    366000   1101.6231     -45.844164     -46.983332     -46.983332      1.1391677    
    367000   1118.8293     -44.821993     -45.978953     -45.978953      1.1569603    
    368000   1069.3547     -45.551621     -46.657421     -46.657421      1.1057995    
    369000   1077.5245     -44.676491     -45.790738     -45.790738      1.1142478    
    370000   1135.438      -45.502428     -46.676563     -46.676563      1.174135     
    371000   1121.2265     -45.087547     -46.246986     -46.246986      1.1594392    
    372000   1071.6681     -44.926178     -46.03437      -46.03437       1.1081918    
    373000   1096.3886     -45.328175     -46.46193      -46.46193       1.1337548    
    374000   1154.8768     -44.986089     -46.180325     -46.180325      1.1942363    
    375000   1117.411      -45.559052     -46.714545     -46.714545      1.1554937    
    376000   1125.1896     -44.788706     -45.952243     -45.952243      1.1635374    
    377000   1132.0457     -45.135463     -46.306091     -46.306091      1.1706271    
    378000   1138.7579     -44.643513     -45.821081     -45.821081      1.1775681    
    379000   1196.1284     -44.738907     -45.975801     -45.975801      1.2368938    
    380000   1065.716      -44.996951     -46.098988     -46.098988      1.1020368    
    381000   1028.4977     -44.84188      -45.90543      -45.90543       1.0635501    
    382000   1183.1876     -45.308785     -46.532297     -46.532297      1.223512     
    383000   1190.6447     -44.153816     -45.385039     -45.385039      1.2312233    
    384000   1173.5709     -45.286077     -46.499644     -46.499644      1.2135676    
    385000   1182.5881     -44.448561     -45.671453     -45.671453      1.2228921    
    386000   1226.1437     -45.353908     -46.62184      -46.62184       1.2679321    
    387000   1149.1797     -44.920037     -46.108382     -46.108382      1.1883451    
    388000   1212.4629     -45.090413     -46.344198     -46.344198      1.2537851    
    389000   1234.7322     -45.371782     -46.648595     -46.648595      1.2768134    
    390000   1165.9305     -44.747434     -45.953101     -45.953101      1.2056667    
    391000   1259.732      -45.451295     -46.75396      -46.75396       1.3026651    
    392000   1199.6897     -44.549033     -45.78961      -45.78961       1.2405765    
    393000   1176.7064     -45.26318      -46.47999      -46.47999       1.2168099    
    394000   1077.9734     -44.427307     -45.542019     -45.542019      1.114712     
    395000   1247.8869     -44.796367     -46.086783     -46.086783      1.2904164    
    396000   1121.5344     -44.336801     -45.496559     -45.496559      1.1597576    
    397000   1224.313      -45.362792     -46.628831     -46.628831      1.266039     
    398000   1168.9358     -44.460149     -45.668924     -45.668924      1.2087745    
    399000   1253.1195     -45.305844     -46.601671     -46.601671      1.2958272    
    400000   1210.5356     -44.719531     -45.971323     -45.971323      1.251792     
    401000   1218.7687     -44.932095     -46.192401     -46.192401      1.2603058    
    402000   1206.0176     -45.424088     -46.671208     -46.671208      1.2471201    
    403000   1228.2342     -44.407425     -45.677519     -45.677519      1.2700939    
    404000   1186.6704     -45.45818      -46.685294     -46.685294      1.2271136    
    405000   1148.6962     -44.331434     -45.519279     -45.519279      1.1878451    
    406000   1244.5971     -45.289426     -46.576441     -46.576441      1.2870144    
    407000   1191.2723     -44.674833     -45.906705     -45.906705      1.2318722    
    408000   1234.3449     -45.348791     -46.625204     -46.625204      1.2764128    
    409000   1256.9853     -44.737112     -46.036937     -46.036937      1.2998249    
    410000   1231.0528     -44.364874     -45.637882     -45.637882      1.2730085    
    411000   1216.1127     -45.551442     -46.809001     -46.809001      1.2575592    
    412000   1143.6127     -43.414917     -44.597505     -44.597505      1.1825884    
    413000   1206.0076     -45.521462     -46.768572     -46.768572      1.2471097    
    414000   1251.5804     -44.632454     -45.92669      -45.92669       1.2942357    
    415000   1252.721      -45.345809     -46.641224     -46.641224      1.2954152    
    416000   1205.517      -44.493547     -45.740149     -45.740149      1.2466024    
    417000   1284.3352     -44.881625     -46.209732     -46.209732      1.3281068    
    418000   1222.2132     -45.125236     -46.389103     -46.389103      1.2638676    
    419000   1276.7894     -43.891991     -45.212295     -45.212295      1.3203039    
    420000   1297.1355     -45.560362     -46.901706     -46.901706      1.3413434    
    421000   1272.5218     -43.343874     -44.659765     -44.659765      1.3158908    
    422000   1229.608      -45.613768     -46.885283     -46.885283      1.2715145    
    423000   1255.9018     -43.58177      -44.880475     -44.880475      1.2987044    
    424000   1299.9436     -45.447009     -46.791256     -46.791256      1.3442472    
    425000   1199.0838     -44.867393     -46.107343     -46.107343      1.23995      
    426000   1303.4373     -45.033767     -46.381627     -46.381627      1.34786      
    427000   1236.5997     -44.876944     -46.155689     -46.155689      1.2787445    
    428000   1292.8835     -43.588492     -44.925439     -44.925439      1.3369465    
    429000   1315.8463     -44.955993     -46.316684     -46.316684      1.3606919    
    430000   1231.0478     -44.056033     -45.329037     -45.329037      1.2730034    
    431000   1297.5558     -45.273841     -46.615619     -46.615619      1.341778     
    432000   1205.1234     -44.04288      -45.289075     -45.289075      1.2461954    
    433000   1350.4059     -44.976859     -46.373288     -46.373288      1.3964293    
    434000   1301.054      -44.334018     -45.679413     -45.679413      1.3453954    
    435000   1298.1554     -45.034515     -46.376913     -46.376913      1.342398     
    436000   1257.3133     -44.909334     -46.209498     -46.209498      1.300164     
    437000   1308.8129     -43.962759     -45.316178     -45.316178      1.3534187    
    438000   1390.7278     -44.776581     -46.214707     -46.214707      1.4381255    
    439000   1309.3051     -44.522613     -45.876541     -45.876541      1.3539277    
    440000   1334.6596     -45.150192     -46.530338     -46.530338      1.3801463    
    441000   1246.234      -44.25533      -45.544037     -45.544037      1.2887071    
    442000   1380.4409     -44.919117     -46.346605     -46.346605      1.4274879    
    443000   1254.9414     -43.963914     -45.261625     -45.261625      1.2977113    
    444000   1345.1606     -45.235315     -46.62632      -46.62632       1.3910052    
    445000   1261.8319     -44.087337     -45.392174     -45.392174      1.3048366    
    446000   1304.7963     -44.246227     -45.595492     -45.595492      1.3492653    
    447000   1306.0502     -44.622047     -45.972609     -45.972609      1.3505619    
    448000   1289.3863     -44.033807     -45.367137     -45.367137      1.3333301    
    449000   1342.7288     -44.512567     -45.901057     -45.901057      1.3884905    
    450000   1290.7179     -43.949094     -45.283801     -45.283801      1.3347071    
    451000   1328.0123     -45.142628     -46.5159       -46.5159        1.3732725    
    452000   1334.4877     -43.740769     -45.120737     -45.120737      1.3799686    
    453000   1401.3828     -45.299732     -46.748875     -46.748875      1.4491435    
    454000   1344.0886     -44.798277     -46.188174     -46.188174      1.3898967    
    455000   1384.4506     -44.440481     -45.872115     -45.872115      1.4316343    
    456000   1385.4292     -44.994309     -46.426955     -46.426955      1.4326463    
    457000   1480.5626     -42.442376     -43.973398     -43.973398      1.5310219    
    458000   1348.9741     -45.264552     -46.659501     -46.659501      1.3949487    
    459000   1417.008      -43.103018     -44.568319     -44.568319      1.4653012    
    460000   1408.3455     -45.203978     -46.660322     -46.660322      1.4563435    
    461000   1419.9817     -44.21135      -45.679726     -45.679726      1.4683763    
    462000   1427.4245     -44.887053     -46.363126     -46.363126      1.4760728    
    463000   1361.7054     -44.905161     -46.313275     -46.313275      1.4081139    
    464000   1494.4047     -44.486701     -46.032037     -46.032037      1.5453357    
    465000   1416.7338     -45.144386     -46.609404     -46.609404      1.4650177    
    466000   1351.5414     -42.632544     -44.030147     -44.030147      1.3976035    
    467000   1346.8517     -45.165227     -46.557981     -46.557981      1.3927539    
    468000   1399.8308     -42.817117     -44.264655     -44.264655      1.4475387    
    469000   1373.7857     -45.081225     -46.501831     -46.501831      1.420606     
    470000   1372.4075     -44.402285     -45.821466     -45.821466      1.4191807    
    471000   1393.9543     -44.282163     -45.723625     -45.723625      1.4414618    
    472000   1394.3702     -44.898027     -46.339919     -46.339919      1.4418919    
    473000   1412.5682     -43.540485     -45.001195     -45.001195      1.4607102    
    474000   1440.8249     -45.127614     -46.617544     -46.617544      1.4899299    
    475000   1457.0509     -43.648568     -45.155276     -45.155276      1.5067089    
    476000   1402.1886     -44.849059     -46.299036     -46.299036      1.4499768    
    477000   1424.2655     -42.853961     -44.326767     -44.326767      1.4728061    
    478000   1464.2062     -44.969636     -46.483744     -46.483744      1.514108     
    479000   1426.6734     -43.627655     -45.102951     -45.102951      1.4752961    
    480000   1478.5436     -44.231249     -45.760183     -45.760183      1.5289341    
    481000   1412.7122     -44.338591     -45.79945      -45.79945       1.4608591    
    482000   1427.3099     -43.768361     -45.244316     -45.244316      1.4759543    
    483000   1452.0686     -44.662409     -46.163966     -46.163966      1.5015568    
    484000   1390.3027     -44.586017     -46.023702     -46.023702      1.4376858    
    485000   1580.3797     -44.041882     -45.676122     -45.676122      1.6342409    
    486000   1406.548      -44.332624     -45.787109     -45.787109      1.4544847    
    487000   1511.5878     -44.849493     -46.412598     -46.412598      1.5631045    
    488000   1621.3326     -43.896624     -45.573214     -45.573214      1.6765895    
    489000   1447.3512     -44.915635     -46.412314     -46.412314      1.4966786    
    490000   1506.0385     -43.935816     -45.493182     -45.493182      1.5573661    
    491000   1368.6741     -44.188058     -45.603378     -45.603378      1.4153201    
    492000   1431.8328     -44.316903     -45.797534     -45.797534      1.4806313    
    493000   1451.8633     -44.426592     -45.927937     -45.927937      1.5013445    
    494000   1443.4622     -44.194589     -45.687246     -45.687246      1.4926571    
    495000   1414.6509     -44.253544     -45.716408     -45.716408      1.4628638    
    496000   1588.754      -44.411345     -46.054246     -46.054246      1.6429006    
    497000   1400.4678     -43.258811     -44.707008     -44.707008      1.4481974    
    498000   1495.3264     -44.716757     -46.263046     -46.263046      1.5462888    
    499000   1440.1072     -44.199854     -45.689042     -45.689042      1.4891877    
    500000   1469.9917     -44.357882     -45.877973     -45.877973      1.5200907    
    501000   1530.037      -43.912304     -45.494486     -45.494486      1.5821824    
    502000   1531.6069     -44.834469     -46.418275     -46.418275      1.5838058    
    503000   1521.3982     -41.980651     -43.5539       -43.5539        1.5732492    
    504000   1499.6453     -44.276349     -45.827104     -45.827104      1.550755     
    505000   1502.4448     -44.263675     -45.817325     -45.817325      1.5536498    
    506000   1546.973      -44.175766     -45.775462     -45.775462      1.5996956    
    507000   1518.0958     -43.41132      -44.981154     -44.981154      1.5698343    
    508000   1471.811      -45.212891     -46.734863     -46.734863      1.521972     
    509000   1501.6142     -42.893284     -44.446075     -44.446075      1.552791     
    510000   1526.0056     -44.14749      -45.725504     -45.725504      1.5780137    
    511000   1548.9838     -44.096207     -45.697982     -45.697982      1.601775     
    512000   1465.9153     -44.55721      -46.073086     -46.073086      1.5158754    
    513000   1531.1213     -44.219208     -45.802512     -45.802512      1.5833037    
    514000   1555.7718     -43.173705     -44.7825       -44.7825        1.6087943    
    515000   1567.8391     -44.7785       -46.399773     -46.399773      1.6212728    
    516000   1290.8001     -42.704027     -44.038819     -44.038819      1.3347921    
    517000   1533.4009     -44.684683     -46.270344     -46.270344      1.5856609    
    518000   1366.1056     -43.494173     -44.906837     -44.906837      1.4126641    
    519000   1531.2843     -45.175413     -46.758885     -46.758885      1.5834722    
    520000   1460.6339     -43.818323     -45.328737     -45.328737      1.510414     
    521000   1579.5322     -44.620444     -46.253809     -46.253809      1.6333645    
    522000   1405.277      -44.069416     -45.522587     -45.522587      1.4531704    
    523000   1650.2777     -44.009926     -45.716447     -45.716447      1.7065211    
    524000   1529.3838     -44.697851     -46.279358     -46.279358      1.5815069    
    525000   1559.5745     -44.101891     -45.714618     -45.714618      1.6127266    
    526000   1531.4484     -44.359033     -45.942675     -45.942675      1.5836419    
    527000   1653.2506     -44.523135     -46.232731     -46.232731      1.7095953    
    528000   1591.6994     -44.240066     -45.886013     -45.886013      1.6459463    
    529000   1580.9637     -43.11768      -44.752525     -44.752525      1.6348448    
    530000   1549.034      -44.556736     -46.158563     -46.158563      1.6018268    
    531000   1555.8839     -43.23187      -44.84078      -44.84078       1.6089103    
    532000   1595.0602     -44.454465     -46.103887     -46.103887      1.6494217    
    533000   1543.0356     -42.897333     -44.492957     -44.492957      1.5956241    
    534000   1555.2683     -45.07469      -46.682963     -46.682963      1.6082736    
    535000   1608.7649     -41.827108     -43.490702     -43.490702      1.6635935    
    536000   1531.6847     -44.770217     -46.354103     -46.354103      1.5838863    
    537000   1632.0585     -43.449301     -45.136982     -45.136982      1.6876809    
    538000   1656.3748     -44.503747     -46.216573     -46.216573      1.712826     
    539000   1644.5808     -43.248627     -44.949257     -44.949257      1.70063      
    540000   1616.8944     -43.556328     -45.228328     -45.228328      1.672        
    541000   1625.2671     -44.445406     -46.126064     -46.126064      1.680658     
    542000   1634.5681     -43.138958     -44.829234     -44.829234      1.6902761    
    543000   1738.3839     -44.37771      -46.17534      -46.17534       1.7976301    
    544000   1700.7735     -43.556519     -45.315256     -45.315256      1.7587378    
    545000   1700.7228     -44.775834     -46.534519     -46.534519      1.7586854    
    546000   1618.776      -43.055259     -44.729205     -44.729205      1.6739458    
    547000   1746.7516     -44.015315     -45.821598     -45.821598      1.806283     
    548000   1679.7741     -43.688317     -45.42534      -45.42534       1.7370227    
    549000   1607.4313     -44.148696     -45.81091      -45.81091       1.6622144    
    550000   1563.3009     -44.094805     -45.711385     -45.711385      1.6165801    
    551000   1648.8549     -43.394296     -45.099345     -45.099345      1.7050498    
    552000   1677.1565     -44.743564     -46.47788      -46.47788       1.734316     
    553000   1642.5594     -42.95726      -44.655799     -44.655799      1.6985397    
    554000   1682.3386     -44.60261      -46.342285     -46.342285      1.7396747    
    555000   1627.38       -42.341268     -44.024111     -44.024111      1.682843     
    556000   1700.9885     -44.019487     -45.778447     -45.778447      1.7589601    
    557000   1704.2698     -43.036097     -44.79845      -44.79845       1.7623532    
    558000   1714.4878     -43.610788     -45.383707     -45.383707      1.7729195    
    559000   1444.5767     -43.266297     -44.760106     -44.760106      1.4938095    
    560000   1730.5155     -44.727784     -46.517277     -46.517277      1.7894935    
    561000   1697.811      -44.051353     -45.807027     -45.807027      1.7556744    
    562000   1682.1033     -43.640423     -45.379854     -45.379854      1.7394313    
    563000   1612.9435     -44.273882     -45.941797     -45.941797      1.6679145    
    564000   1519.417      -42.834108     -44.405309     -44.405309      1.5712005    
    565000   1534.925      -44.520913     -46.10815      -46.10815       1.587237     
    566000   1681.6573     -42.01113      -43.7501       -43.7501        1.7389701    
    567000   1770.6133     -44.448982     -46.27994      -46.27994       1.8309578    
    568000   1755.0705     -41.829908     -43.644793     -43.644793      1.8148853    
    569000   1704.0867     -43.994862     -45.757026     -45.757026      1.7621639    
    570000   1616.7205     -42.854926     -44.526746     -44.526746      1.6718202    
    571000   1722.0641     -44.055555     -45.836309     -45.836309      1.780754     
    572000   1782.2234     -44.225508     -46.068471     -46.068471      1.8429636    
    573000   1795.5298     -42.907665     -44.764389     -44.764389      1.8567236    
    574000   1712.5253     -44.207911     -45.978801     -45.978801      1.7708902    
    575000   1823.3126     -40.983586     -42.869039     -42.869039      1.8854532    
    576000   1774.3089     -44.613465     -46.448244     -46.448244      1.8347794    
    577000   1696.2005     -42.72121      -44.475219     -44.475219      1.754009     
    578000   1716.5784     -44.71558      -46.490661     -46.490661      1.7750814    
    579000   1728.293      -43.470976     -45.258171     -45.258171      1.7871953    
    580000   1719.238      -44.343155     -46.120987     -46.120987      1.7778316    
    581000   1683.0813     -43.123025     -44.863467     -44.863467      1.7404426    
    582000   1824.058      -43.850059     -45.736283     -45.736283      1.8862241    
    583000   1839.0494     -44.067863     -45.969589     -45.969589      1.9017263    
    584000   2030.4176     -43.247448     -45.347065     -45.347065      2.0996166    
    585000   1696.7136     -44.416654     -46.171194     -46.171194      1.7545396    
    586000   1843.1552     -41.352256     -43.258228     -43.258228      1.905972     
    587000   1799.6497     -44.591082     -46.452066     -46.452066      1.8609839    
    588000   1767.8779     -41.986185     -43.814314     -43.814314      1.8281292    
    589000   1740.9931     -44.895917     -46.696245     -46.696245      1.8003282    
    590000   1684.4669     -42.069412     -43.811288     -43.811288      1.7418755    
    591000   1769.8447     -44.670129     -46.500292     -46.500292      1.8301631    
    592000   1743.1939     -42.35118      -44.153784     -44.153784      1.802604     
    593000   1818.1232     -44.751564     -46.631651     -46.631651      1.8800869    
    594000   1709.1486     -44.117739     -45.885138     -45.885138      1.7673984    
    595000   1887.4405     -43.500072     -45.451838     -45.451838      1.9517667    
    596000   1823.812      -44.240813     -46.126783     -46.126783      1.8859696    
    597000   1719.4055     -43.411613     -45.189618     -45.189618      1.7780048    
    598000   1812.2936     -44.077176     -45.951235     -45.951235      1.8740586    
    599000   1882.2667     -42.594165     -44.540581     -44.540581      1.9464165    
    600000   1853.158      -44.666904     -46.58322      -46.58322       1.9163158    
    601000   1743.2175     -42.8183       -44.620928     -44.620928      1.8026284    
    602000   1841.6981     -44.226266     -46.130731     -46.130731      1.9044653    
    603000   1894.7841     -41.596666     -43.556026     -43.556026      1.9593606    
    604000   1796.6835     -43.830621     -45.688538     -45.688538      1.8579166    
    605000   1755.0722     -43.39151      -45.206397     -45.206397      1.8148871    
    606000   1900.1195     -44.031322     -45.996199     -45.996199      1.9648778    
    607000   1807.8108     -43.747075     -45.616498     -45.616498      1.8694231    
    608000   1834.4018     -43.625655     -45.522575     -45.522575      1.8969203    
    609000   1855.6104     -44.351914     -46.270766     -46.270766      1.9188518    
    610000   1881.4148     -42.381891     -44.327427     -44.327427      1.9455356    
    611000   1781.4772     -44.199373     -46.041565     -46.041565      1.842192     
    612000   1718.5659     -42.677277     -44.454413     -44.454413      1.7771366    
    613000   1837.8457     -43.900963     -45.801444     -45.801444      1.9004816    
    614000   1945.0447     -42.125013     -44.136347     -44.136347      2.0113341    
    615000   1753.6943     -44.46699      -46.280452     -46.280452      1.8134623    
    616000   1875.6373     -42.025068     -43.964629     -43.964629      1.9395612    
    617000   1773.326      -43.165253     -44.999016     -44.999016      1.833763     
    618000   1792.0878     -42.9971       -44.850264     -44.850264      1.8531642    
    619000   2012.9014     -44.305187     -46.386691     -46.386691      2.0815034    
    620000   1863.0624     -43.06491      -44.991467     -44.991467      1.9265577    
    621000   1907.2847     -43.513487     -45.485774     -45.485774      1.9722871    
    622000   1950.6111     -44.399737     -46.416827     -46.416827      2.0170902    
    623000   1987.2591     -42.521172     -44.576159     -44.576159      2.0549872    
    624000   1859.3021     -44.308566     -46.231235     -46.231235      1.9226693    
    625000   2012.6063     -43.431607     -45.512806     -45.512806      2.0811983    
    626000   1831.8335     -43.756028     -45.650292     -45.650292      1.8942645    
    627000   1822.3791     -41.758657     -43.643144     -43.643144      1.8844879    
    628000   1888.8446     -44.177515     -46.130734     -46.130734      1.9532187    
    629000   1772.2056     -42.507962     -44.340567     -44.340567      1.8326044    
    630000   1903.7558     -43.949934     -45.918572     -45.918572      1.9686381    
    631000   1890.1845     -42.834536     -44.78914      -44.78914       1.9546042    
    632000   1845.2039     -43.977565     -45.885655     -45.885655      1.9080906    
    633000   2061.8164     -41.650557     -43.782643     -43.782643      2.1320855    
    634000   1855.8926     -43.891745     -45.810889     -45.810889      1.9191436    
    635000   1964.761      -43.842551     -45.874273     -45.874273      2.0317223    
    636000   1998.2709     -42.828353     -44.894727     -44.894727      2.0663743    
    637000   1943.0814     -43.683203     -45.692506     -45.692506      2.0093039    
    638000   1946.7088     -42.92973      -44.942785     -44.942785      2.0130549    
    639000   2059.179      -44.151589     -46.280947     -46.280947      2.1293582    
    640000   1925.9778     -42.503182     -44.4948       -44.4948        1.9916173    
    641000   1902.1731     -43.480983     -45.447984     -45.447984      1.9670014    
    642000   2146.6519     -42.398447     -44.618259     -44.618259      2.2198123    
    643000   1966.1208     -43.375461     -45.408589     -45.408589      2.0331285    
    644000   1995.8511     -41.821008     -43.88488      -43.88488       2.063872     
    645000   1956.5734     -44.219996     -46.243252     -46.243252      2.0232557    
    646000   1904.3071     -42.506489     -44.475697     -44.475697      1.9692081    
    647000   1956.3308     -44.140999     -46.164004     -46.164004      2.0230048    
    648000   1927.562      -43.549498     -45.542753     -45.542753      1.9932555    
    649000   1983.0469     -43.574398     -45.625029     -45.625029      2.0506315    
    650000   2056.5117     -44.085423     -46.212023     -46.212023      2.1266       
    651000   1958.7613     -43.858249     -45.883767     -45.883767      2.0255182    
    652000   2049.6869     -43.215347     -45.334889     -45.334889      2.1195426    
    653000   2021.082      -41.924759     -44.014721     -44.014721      2.0899628    
    654000   1950.1436     -43.887299     -45.903905     -45.903905      2.0166068    
    655000   2026.9865     -42.555518     -44.651586     -44.651586      2.0960686    
    656000   1941.7336     -43.538624     -45.546534     -45.546534      2.0079101    
    657000   2081.2787     -42.019063     -44.171274     -44.171274      2.1522111    
    658000   1930.5396     -44.671294     -46.667628     -46.667628      1.9963346    
    659000   1826.172      -41.698579     -43.586989     -43.586989      1.8884101    
    660000   2048.5208     -44.456005     -46.574342     -46.574342      2.1183368    
    661000   2087.9539     -40.754789     -42.913903     -42.913903      2.1591138    
    662000   1980.7005     -44.40859      -46.456795     -46.456795      2.048205     
    663000   1814.6839     -42.766236     -44.642766     -44.642766      1.8765304    
    664000   1898.4202     -43.829424     -45.792544     -45.792544      1.9631206    
    665000   2091.4025     -42.660087     -44.822767     -44.822767      2.1626799    
    666000   2001.7253     -43.327126     -45.397072     -45.397072      2.0699464    
    667000   1991.0022     -43.62934      -45.688198     -45.688198      2.0588579    
    668000   1996.6444     -41.809208     -43.873901     -43.873901      2.0646924    
    669000   2048.139      -44.259711     -46.377653     -46.377653      2.1179419    
    670000   2230.7031     -40.631925     -42.938653     -42.938653      2.306728     
    671000   2028.088      -44.229368     -46.326576     -46.326576      2.0972076    
    672000   2075.5845     -42.700826     -44.847149     -44.847149      2.1463229    
    673000   2071.6822     -43.043102     -45.185389     -45.185389      2.1422876    
    674000   1960.5091     -43.139426     -45.166751     -45.166751      2.0273255    
    675000   1964.616      -43.275345     -45.306917     -45.306917      2.0315724    
    676000   2033.6062     -43.560738     -45.663651     -45.663651      2.1029138    
    677000   2018.6166     -42.232702     -44.320116     -44.320116      2.0874134    
    678000   2001.7125     -43.955005     -46.024938     -46.024938      2.0699332    
    679000   2149.7177     -42.818095     -45.041078     -45.041078      2.2229826    
    680000   2031.865      -43.613906     -45.715019     -45.715019      2.1011133    
    681000   1979.9436     -42.09749      -44.144913     -44.144913      2.0474224    
    682000   2041.9123     -44.329601     -46.441104     -46.441104      2.111503     
    683000   2104.2797     -41.271312     -43.447308     -43.447308      2.175996     
    684000   2079.7879     -43.439236     -45.589905     -45.589905      2.1506695    
    685000   1990.6182     -42.729834     -44.788295     -44.788295      2.0584608    
    686000   1947.8581     -43.30951      -45.323754     -45.323754      2.0142434    
    687000   2050.3053     -43.86087      -45.981052     -45.981052      2.1201821    
    688000   2047.8422     -42.680127     -44.797762     -44.797762      2.1176351    
    689000   2092.618      -43.696419     -45.860356     -45.860356      2.1639368    
    690000   2148.2208     -41.914594     -44.136029     -44.136029      2.2214346    
    691000   2108.537      -44.084906     -46.265305     -46.265305      2.1803984    
    692000   2274.9092     -39.519044     -41.871484     -41.871484      2.3524407    
    693000   2168.3956     -43.921565     -46.163862     -46.163862      2.2422971    
    694000   1989.0805     -41.297475     -43.354346     -43.354346      2.0568707    
    695000   2044.1112     -43.965139     -46.078916     -46.078916      2.1137769    
    696000   2020.7431     -42.24635      -44.335962     -44.335962      2.0896123    
    697000   2175.9621     -43.484036     -45.734157     -45.734157      2.2501214    
    698000   2020.8117     -42.471938     -44.561621     -44.561621      2.0896833    
    699000   2003.3008     -43.517227     -45.588802     -45.588802      2.0715756    
    700000   1939.7213     -42.862776     -44.868605     -44.868605      2.0058292    
    701000   2287.0184     -42.882557     -45.24752      -45.24752       2.3649626    
    702000   2082.8622     -43.106247     -45.260096     -45.260096      2.1538485    
    703000   2278.3161     -41.674894     -44.030858     -44.030858      2.3559637    
    704000   1892.3767     -43.881141     -45.838013     -45.838013      1.9568711    
    705000   2100.0203     -40.953154     -43.124746     -43.124746      2.1715914    
    706000   2157.4291     -43.606174     -45.837131     -45.837131      2.2309568    
    707000   1885.683      -41.516531     -43.46648      -43.46648       1.9499493    
    708000   2027.179      -43.418394     -45.514662     -45.514662      2.0962676    
    709000   2106.5894     -41.195959     -43.374343     -43.374343      2.1783844    
    710000   2194.6247     -43.332562     -45.601982     -45.601982      2.2694201    
    711000   2153.3813     -43.3444       -45.571171     -45.571171      2.226771     
    712000   2159.3201     -42.657218     -44.89013      -44.89013       2.2329122    
    713000   2226.51       -43.199103     -45.501495     -45.501495      2.302392     
    714000   2335.2231     -41.651473     -44.066284     -44.066284      2.4148103    
    715000   2178.569      -44.224834     -46.477652     -46.477652      2.2528172    
    716000   1962.6815     -41.759811     -43.789383     -43.789383      2.0295719    
    717000   2038.1924     -44.066781     -46.174437     -46.174437      2.1076563    
    718000   2121.482      -40.9292       -43.122984     -43.122984      2.1937845    
    719000   2192.2812     -43.411802     -45.678798     -45.678798      2.2669967    
    720000   1847.3633     -41.77069      -43.681014     -43.681014      1.9103236    
    721000   2172.4552     -43.090992     -45.337487     -45.337487      2.246495     
    722000   2081.3262     -42.61757      -44.76983      -44.76983       2.1522602    
    723000   2349.148      -43.272504     -45.701714     -45.701714      2.4292097    
    724000   2221.6169     -43.837446     -46.134778     -46.134778      2.2973322    
    725000   2240.1767     -42.366892     -44.683417     -44.683417      2.3165245    
    726000   2091.0523     -43.781587     -45.943904     -45.943904      2.1623178    
    727000   2320.4457     -42.549019     -44.948548     -44.948548      2.3995291    
    728000   2209.9448     -43.909272     -46.194534     -46.194534      2.2852623    
    729000   2077.0205     -41.896615     -44.044423     -44.044423      2.1478077    
    730000   2130.4189     -43.6717       -45.874726     -45.874726      2.203026     
    731000   2328.4822     -41.764812     -44.172652     -44.172652      2.4078396    
    732000   2359.1659     -43.272154     -45.711723     -45.711723      2.439569     
    733000   2329.433      -41.824412     -44.233234     -44.233234      2.4088227    
    734000   2210.9693     -43.277398     -45.563719     -45.563719      2.2863217    
    735000   2272.9497     -40.792941     -43.143356     -43.143356      2.3504145    
    736000   2171.8691     -43.330719     -45.576608     -45.576608      2.2458889    
    737000   2278.7896     -41.860576     -44.217029     -44.217029      2.3564534    
    738000   2196.3287     -44.278958     -46.55014      -46.55014       2.2711821    
    739000   2386.719      -40.636559     -43.104621     -43.104621      2.4680611    
    740000   2139.6438     -43.801357     -46.013922     -46.013922      2.2125653    
    741000   2117.3674     -41.237812     -43.427341     -43.427341      2.1895298    
    742000   2214.406      -43.915404     -46.20528      -46.20528       2.2898755    
    743000   2109.5433     -41.673423     -43.854862     -43.854862      2.181439     
    744000   2212.7521     -42.569125     -44.85729      -44.85729       2.2881653    
    745000   2071.8906     -42.441087     -44.58359      -44.58359       2.142503     
    746000   2084.9534     -43.41732      -45.573331     -45.573331      2.156011     
    747000   2083.2173     -42.799881     -44.954096     -44.954096      2.1542157    
    748000   2155.1273     -41.760234     -43.98881      -43.98881       2.2285765    
    749000   2174.1786     -44.16381      -46.412087     -46.412087      2.2482772    
    750000   2319.3418     -43.396543     -45.794931     -45.794931      2.3983876    
    751000   2300.9004     -41.582406     -43.961724     -43.961724      2.3793177    
    752000   2156.2094     -43.466241     -45.695936     -45.695936      2.2296956    
    753000   2331.6998     -43.778678     -46.189845     -46.189845      2.4111668    
    754000   1913.4777     -43.568438     -45.547129     -45.547129      1.9786913    
    755000   2211.9347     -43.044764     -45.332084     -45.332084      2.28732      
    756000   2406.8611     -42.887936     -45.376825     -45.376825      2.4888897    
    757000   2287.7752     -43.562613     -45.928358     -45.928358      2.3657452    
    758000   2149.3552     -43.761867     -45.984475     -45.984475      2.2226077    
    759000   2075.271      -43.205414     -45.351413     -45.351413      2.1459986    
    760000   2204.4646     -44.642412     -46.922008     -46.922008      2.2795953    
    761000   2233.0304     -43.358821     -45.667956     -45.667956      2.3091347    
    762000   2328.0981     -43.267185     -45.674628     -45.674628      2.4074424    
    763000   2316.8724     -44.160714     -46.556548     -46.556548      2.3958341    
    764000   2185.7076     -43.884612     -46.144811     -46.144811      2.2601991    
    765000   2311.7609     -42.961319     -45.351867     -45.351867      2.3905483    
    766000   2196.8902     -43.932944     -46.204707     -46.204707      2.2717627    
    767000   2219.0582     -41.578758     -43.873444     -43.873444      2.2946863    
    768000   2266.4888     -43.634104     -45.977837     -45.977837      2.3437334    
    769000   2482.1544     -44.07725      -46.643999     -46.643999      2.5667491    
    770000   2392.4599     -43.097097     -45.571095     -45.571095      2.4739977    
    771000   2449.7389     -44.573323     -47.106552     -47.106552      2.5332288    
    772000   2173.1222     -41.530199     -43.777384     -43.777384      2.2471847    
    773000   2353.1573     -43.42421      -45.857566     -45.857566      2.4333557    
    774000   2401.1382     -42.738033     -45.221005     -45.221005      2.4829718    
    775000   2178.0143     -43.785183     -46.037427     -46.037427      2.2522435    
    776000   2376.9087     -41.617626     -44.075543     -44.075543      2.4579165    
    777000   2289.4587     -44.191778     -46.559264     -46.559264      2.3674861    
    778000   2268.7077     -42.006307     -44.352335     -44.352335      2.3460279    
    779000   2192.9479     -42.368679     -44.636365     -44.636365      2.2676861    
    780000   2229.7861     -44.010448     -46.316228     -46.316228      2.3057798    
    781000   2333.9699     -41.374969     -43.788483     -43.788483      2.4135143    
    782000   2476.3081     -43.733457     -46.29416      -46.29416       2.5607036    
    783000   2386.4374     -41.737612     -44.205382     -44.205382      2.46777      
    784000   2366.9318     -44.283613     -46.731213     -46.731213      2.4475996    
    785000   2222.0712     -43.08726      -45.385062     -45.385062      2.297802     
    786000   2305.9071     -43.958918     -46.343413     -46.343413      2.384495     
    787000   2369.5449     -43.554803     -46.005105     -46.005105      2.4503018    
    788000   2368.2903     -43.277663     -45.726667     -45.726667      2.4490044    
    789000   2239.3998     -44.428403     -46.744124     -46.744124      2.3157212    
    790000   2587.1464     -43.254187     -45.929506     -45.929506      2.6753193    
    791000   2313.9654     -43.747344     -46.140172     -46.140172      2.392828     
    792000   2705.34       -42.188293     -44.985834     -44.985834      2.7975411    
    793000   2415.9571     -43.18935      -45.687646     -45.687646      2.4982958    
    794000   2528.1489     -43.558812     -46.173123     -46.173123      2.6143112    
    795000   2428.9597     -41.974141     -44.485882     -44.485882      2.5117415    
    796000   2312.2385     -42.670073     -45.061115     -45.061115      2.3910423    
    797000   2426.4362     -45.479038     -47.98817      -47.98817       2.509132     
    798000   2307.2731     -45.24924      -47.635148     -47.635148      2.3859076    
    799000   2459.911      -44.087199     -46.630947     -46.630947      2.5437476    
    800000   2397.0616     -44.385786     -46.864542     -46.864542      2.4787562    
    801000   2544.9661     -43.331577     -45.963278     -45.963278      2.6317014    
    802000   2308.1713     -43.746219     -46.133056     -46.133056      2.3868364    
    803000   2369.0602     -45.01477      -47.46457      -47.46457       2.4498005    
    804000   2445.4266     -45.694692     -48.223462     -48.223462      2.5287695    
    805000   2374.5478     -43.608883     -46.064358     -46.064358      2.4554751    
    806000   2494.5449     -44.008686     -46.588248     -46.588248      2.5795619    
    807000   2140.2151     -44.278822     -46.491979     -46.491979      2.2131561    
    808000   2697.0148     -43.715605     -46.504537     -46.504537      2.7889322    
    809000   2547.9388     -45.064161     -47.698937     -47.698937      2.6347755    
    810000   2397.9859     -45.227204     -47.706916     -47.706916      2.4797121    
    811000   2455.9798     -45.341418     -47.8811       -47.8811        2.5396824    
    812000   2364.1371     -44.056651     -46.501361     -46.501361      2.4447096    
    813000   2554.8751     -44.89787      -47.539818     -47.539818      2.6419482    
    814000   2253.6261     -44.801385     -47.131817     -47.131817      2.3304323    
    815000   2353.4323     -44.638285     -47.071925     -47.071925      2.43364      
    816000   2633.3214     -45.114244     -47.837312     -47.837312      2.7230681    
    817000   2370.048      -43.979276     -46.430098     -46.430098      2.450822     
    818000   2364.8828     -44.403738     -46.849218     -46.849218      2.4454808    
    819000   2499.8324     -42.616694     -45.201723     -45.201723      2.5850296    
    820000   2493.7062     -45.051876     -47.630571     -47.630571      2.5786946    
    821000   2603.9919     -44.334383     -47.027122     -47.027122      2.692739     
    822000   2413.0413     -44.843298     -47.338578     -47.338578      2.4952806    
    823000   2370.6153     -43.284406     -45.735814     -45.735814      2.4514086    
    824000   2445.426      -43.583719     -46.112488     -46.112488      2.5287689    
    825000   2348.538      -45.660903     -48.089482     -48.089482      2.4285789    
    826000   2446.7519     -43.982022     -46.512162     -46.512162      2.53014      
    827000   2530.8276     -44.409174     -47.026255     -47.026255      2.6170811    
    828000   2390.8588     -44.360405     -46.832747     -46.832747      2.4723421    
    829000   2545.6844     -43.97893      -46.611374     -46.611374      2.6324443    
    830000   2413.1405     -44.755847     -47.25123      -47.25123       2.4953832    
    831000   2495.8832     -45.614804     -48.19575      -48.19575       2.5809458    
    832000   2439.0504     -44.280478     -46.802654     -46.802654      2.5221761    
    833000   2487.029      -44.799265     -47.371055     -47.371055      2.5717898    
    834000   2358.245      -43.637302     -46.075919     -46.075919      2.4386167    
    835000   2395.3918     -43.351603     -45.828632     -45.828632      2.4770296    
    836000   2296.2381     -42.922309     -45.296806     -45.296806      2.3744966    
    837000   2451.1052     -45.304732     -47.839374     -47.839374      2.5346417    
    838000   2493.8183     -43.320137     -45.898948     -45.898948      2.5788105    
    839000   2718.1873     -44.726783     -47.537609     -47.537609      2.8108263    
    840000   2658.454      -44.646918     -47.395976     -47.395976      2.7490572    
    841000   2590.0714     -43.295249     -45.973593     -45.973593      2.678344     
    842000   2463.9601     -44.491906     -47.03984      -47.03984       2.5479348    
    843000   2422.3031     -44.008468     -46.513326     -46.513326      2.504858     
    844000   2524.7023     -43.538799     -46.149546     -46.149546      2.6107471    
    845000   2543.9078     -43.593686     -46.224293     -46.224293      2.6306072    
    846000   2527.6513     -44.365034     -46.978831     -46.978831      2.6137966    
    847000   2503.1574     -44.527556     -47.116023     -47.116023      2.5884679    
    848000   2394.7283     -44.390828     -46.867171     -46.867171      2.4763434    
    849000   2567.0815     -44.980194     -47.634765     -47.634765      2.6545706    
    850000   2586.3912     -45.489041     -48.16358      -48.16358       2.6745384    
    851000   2363.8093     -43.609053     -46.053423     -46.053423      2.4443707    
    852000   2620.5417     -44.085341     -46.795194     -46.795194      2.7098528    
    853000   2651.9203     -44.034767     -46.777068     -46.777068      2.7423009    
    854000   2659.8407     -43.305669     -46.05616      -46.05616       2.7504911    
    855000   2744.4511     -43.342625     -46.18061      -46.18061       2.8379851    
    856000   2561.9064     -43.198296     -45.847515     -45.847515      2.6492192    
    857000   2388.6103     -44.550818     -47.020835     -47.020835      2.4700169    
    858000   2551.5494     -43.039158     -45.677667     -45.677667      2.6385091    
    859000   2496.4791     -44.587221     -47.168783     -47.168783      2.581562     
    860000   2626.6675     -43.861738     -46.577926     -46.577926      2.7161874    
    861000   2432.478      -43.939266     -46.454645     -46.454645      2.5153797    
    862000   2553.8962     -44.164585     -46.80552      -46.80552       2.6409359    
    863000   2606.7717     -44.201557     -46.89717      -46.89717       2.6956135    
    864000   2743.3578     -44.791008     -47.627863     -47.627863      2.8368546    
    865000   2422.7052     -44.161449     -46.666723     -46.666723      2.5052738    
    866000   2948.9053     -42.878692     -45.9281       -45.9281        3.0494074    
    867000   2590.6063     -44.785522     -47.464419     -47.464419      2.6788972    
    868000   2722.0757     -42.300387     -45.115234     -45.115234      2.8148472    
    869000   2521.433      -45.209827     -47.817193     -47.817193      2.6073663    
    870000   2445.1491     -43.33914      -45.867623     -45.867623      2.5284826    
    871000   2299.4182     -43.775237     -46.153022     -46.153022      2.377785     
    872000   2671.1263     -44.252341     -47.014503     -47.014503      2.7621614    
    873000   2817.4056     -43.774605     -46.688031     -46.688031      2.913426     
    874000   2631.075      -44.277534     -46.998279     -46.998279      2.7207451    
    875000   2647.699      -44.864918     -47.602854     -47.602854      2.7379356    
    876000   2663.7857     -44.522591     -47.277162     -47.277162      2.7545706    
    877000   2607.4789     -43.470825     -46.16717      -46.16717       2.6963448    
    878000   2705.5681     -43.030869     -45.828646     -45.828646      2.797777     
    879000   2759.5741     -43.96352      -46.817144     -46.817144      2.8536236    
    880000   2639.6722     -41.47026      -44.199895     -44.199895      2.7296353    
[...]
   1888000   663.30874     -49.376897     -50.062812     -50.062812      0.68591507   
   1889000   624.46426     -48.795647     -49.441393     -49.441393      0.64574673   
   1890000   623.98866     -49.517797     -50.163052     -50.163052      0.64525492   
   1891000   657.2251      -49.356807     -50.036432     -50.036432      0.67962409   
   1892000   637.17424     -49.341119     -50.000009     -50.000009      0.65888988   
   1893000   622.95093     -49.29949      -49.943672     -49.943672      0.64418182   
   1894000   643.79714     -49.677503     -50.343242     -50.343242      0.66573849   
   1895000   617.43555     -49.311096     -49.949575     -49.949575      0.63847847   
   1896000   633.22166     -48.674463     -49.329266     -49.329266      0.65480258   
   1897000   556.53354     -49.152073     -49.727574     -49.727574      0.57550085   
   1898000   587.2226      -49.414807     -50.022043     -50.022043      0.60723582   
   1899000   622.06318     -49.457263     -50.100527     -50.100527      0.64326382   
   1900000   597.49051     -49.582609     -50.200462     -50.200462      0.61785368   
   1901000   599.46392     -49.6381       -50.257995     -50.257995      0.61989435   
   1902000   612.4602      -49.253869     -49.887203     -49.887203      0.63333356   
   1903000   555.26031     -49.048787     -49.622971     -49.622971      0.57418422   
   1904000   556.69469     -49.441656     -50.017323     -50.017323      0.57566749   
   1905000   625.66118     -49.40666      -50.053645     -50.053645      0.64698443   
   1906000   589.15555     -49.182375     -49.791609     -49.791609      0.60923466   
   1907000   547.76274     -49.474605     -50.041036     -50.041036      0.56643113   
   1908000   566.4615      -49.696882     -50.282649     -50.282649      0.58576717   
   1909000   578.26919     -49.57553      -50.173507     -50.173507      0.59797727   
   1910000   570.19601     -49.449883     -50.039512     -50.039512      0.58962895   
   1911000   573.35062     -49.160011     -49.752902     -49.752902      0.59289107   
   1912000   574.24225     -49.294481     -49.888295     -49.888295      0.59381309   
   1913000   585.76671     -49.290806     -49.896537     -49.896537      0.60573031   
   1914000   559.9698      -49.643545     -50.222599     -50.222599      0.57905422   
   1915000   540.54454     -49.404169     -49.963136     -49.963136      0.55896693   
   1916000   557.34471     -49.152917     -49.729257     -49.729257      0.57633967   
   1917000   506.88024     -49.395489     -49.919645     -49.919645      0.52415531   
   1918000   562.27891     -49.495979     -50.077421     -50.077421      0.58144203   
   1919000   547.86118     -49.676517     -50.24305      -50.24305       0.56653293   
   1920000   564.66683     -49.303359     -49.887271     -49.887271      0.58391133   
   1921000   593.5257      -49.481076     -50.09483      -50.09483       0.61375375   
   1922000   559.77108     -49.431718     -50.010566     -50.010566      0.57884872   
   1923000   490.09915     -49.34859      -49.855392     -49.855392      0.5068023    
   1924000   513.50894     -49.224385     -49.755395     -49.755395      0.53100992   
   1925000   517.97768     -49.610366     -50.145997     -50.145997      0.53563096   
   1926000   527.25288     -49.650802     -50.196024     -50.196024      0.54522227   
   1927000   511.14781     -49.437142     -49.96571      -49.96571       0.52856832   
   1928000   536.57247     -49.266145     -49.821004     -49.821004      0.55485948   
   1929000   524.64595     -49.087236     -49.629762     -49.629762      0.54252649   
   1930000   491.38457     -49.444108     -49.95224      -49.95224       0.50813153   
   1931000   515.262       -49.577921     -50.110743     -50.110743      0.53282273   
   1932000   532.7652      -49.37726      -49.928183     -49.928183      0.55092246   
   1933000   505.28283     -49.463655     -49.986158     -49.986158      0.52250345   
   1934000   497.76922     -49.448938     -49.963672     -49.963672      0.51473377   
   1935000   490.56168     -49.691298     -50.198579     -50.198579      0.50728059   
   1936000   494.37035     -49.484475     -49.995695     -49.995695      0.51121907   
   1937000   496.65571     -49.264752     -49.778334     -49.778334      0.51358231   
   1938000   491.23757     -49.676932     -50.184912     -50.184912      0.50797952   
   1939000   472.68128     -49.743458     -50.232249     -50.232249      0.48879081   
   1940000   493.70189     -49.64369      -50.154218     -50.154218      0.51052782   
   1941000   454.75661     -49.709031     -50.179286     -50.179286      0.47025524   
   1942000   471.31298     -49.824645     -50.312021     -50.312021      0.48737587   
   1943000   488.30506     -49.732481     -50.237428     -50.237428      0.50494706   
   1944000   505.53916     -49.75571      -50.278479     -50.278479      0.52276852   
   1945000   476.53382     -49.598494     -50.091268     -50.091268      0.49277464   
   1946000   489.21314     -49.661394     -50.16728      -50.16728       0.50588609   
   1947000   443.7904      -49.615675     -50.07459      -50.07459       0.4589153    
   1948000   474.53194     -49.654857     -50.145561     -50.145561      0.49070454   
   1949000   460.63569     -49.710276     -50.18661      -50.18661       0.47633469   
   1950000   440.9991      -49.627182     -50.083211     -50.083211      0.45602886   
   1951000   431.69185     -49.61198      -50.058385     -50.058385      0.44640441   
   1952000   431.38662     -49.724681     -50.17077      -50.17077       0.44608877   
   1953000   421.5153      -49.810892     -50.246773     -50.246773      0.43588103   
   1954000   434.10797     -49.808792     -50.257695     -50.257695      0.44890288   
   1955000   442.65455     -49.86733      -50.325071     -50.325071      0.45774073   
   1956000   438.86893     -49.571359     -50.025185     -50.025185      0.45382609   
   1957000   419.63976     -49.873298     -50.307239     -50.307239      0.43394157   
   1958000   404.6347      -49.49654      -49.914965     -49.914965      0.41842512   
   1959000   425.40253     -49.533372     -49.973273     -49.973273      0.43990074   
   1960000   448.49268     -49.487384     -49.951162     -49.951162      0.46377784   
   1961000   448.12386     -49.585267     -50.048664     -50.048664      0.46339644   
   1962000   426.18982     -49.665987     -50.106702     -50.106702      0.44071486   
   1963000   437.6368      -49.557655     -50.010207     -50.010207      0.45255197   
   1964000   372.75827     -49.633606     -50.019068     -50.019068      0.3854623    
   1965000   343.42554     -49.515257     -49.870386     -49.870386      0.35512988   
   1966000   352.90988     -49.628462     -49.9934       -49.9934        0.36493746   
   1967000   388.22564     -49.665799     -50.067256     -50.067256      0.40145682   
   1968000   394.92842     -49.768004     -50.176392     -50.176392      0.40838804   
   1969000   364.18067     -49.602927     -49.979519     -49.979519      0.37659237   
   1970000   388.95644     -49.794862     -50.197075     -50.197075      0.40221252   
   1971000   395.9781      -49.766319     -50.175792     -50.175792      0.40947349   
   1972000   375.60606     -49.638249     -50.026656     -50.026656      0.38840715   
   1973000   381.77159     -49.821961     -50.216744     -50.216744      0.39478281   
   1974000   386.25941     -49.788912     -50.188336     -50.188336      0.39942358   
   1975000   381.25787     -49.727111     -50.121363     -50.121363      0.39425158   
   1976000   391.92303     -49.785655     -50.190936     -50.190936      0.40528022   
   1977000   376.94135     -49.849025     -50.238813     -50.238813      0.38978795   
   1978000   381.51885     -49.701432     -50.095954     -50.095954      0.39452145   
   1979000   376.36558     -49.673977     -50.063169     -50.063169      0.38919256   
   1980000   361.00852     -49.886142     -50.259455     -50.259455      0.37331211   
   1981000   356.97795     -49.996391     -50.365535     -50.365535      0.36914417   
   1982000   370.30028     -49.78884      -50.17176      -50.17176       0.38292054   
   1983000   369.22571     -49.831253     -50.213062     -50.213062      0.38180935   
   1984000   351.46932     -49.804964     -50.168412     -50.168412      0.36344781   
   1985000   342.30163     -49.863313     -50.217281     -50.217281      0.35396767   
   1986000   342.92405     -49.957364     -50.311976     -50.311976      0.3546113    
   1987000   363.42977     -49.910061     -50.285877     -50.285877      0.37581588   
   1988000   340.25454     -49.860739     -50.21259      -50.21259       0.35185081   
   1989000   325.51865     -49.742656     -50.079269     -50.079269      0.3366127    
   1990000   335.45205     -49.760196     -50.107081     -50.107081      0.34688464   
   1991000   337.13858     -49.833036     -50.181664     -50.181664      0.34862865   
   1992000   311.69041     -49.825878     -50.148192     -50.148192      0.32231318   
   1993000   333.98144     -49.869894     -50.215258     -50.215258      0.34536392   
   1994000   312.89061     -49.922875     -50.24643      -50.24643       0.32355428   
   1995000   325.21232     -49.904999     -50.241295     -50.241295      0.33629593   
   1996000   299.43957     -49.808989     -50.118634     -50.118634      0.30964482   
   1997000   314.71076     -49.989775     -50.315211     -50.315211      0.32543647   
   1998000   304.26289     -50.010849     -50.325482     -50.325482      0.31463252   
   1999000   309.51607     -49.960424     -50.280489     -50.280489      0.32006474   
   2000000   307.60687     -49.812718     -50.130808     -50.130808      0.31809046   
   2001000   289.69448     -49.962535     -50.262103     -50.262103      0.2995676    
   2002000   301.3933      -49.98969      -50.301355     -50.301355      0.31166513   
   2003000   299.922       -50.02025      -50.330393     -50.330393      0.31014369   
   2004000   283.37101     -50.031392     -50.32442      -50.32442       0.29302862   
   2005000   288.10679     -50.046739     -50.344665     -50.344665      0.2979258    
   2006000   294.98256     -49.886048     -50.191084     -50.191084      0.30503591   
   2007000   268.2909      -49.957145     -50.23458      -50.23458       0.27743456   
   2008000   273.87732     -50.032958     -50.316169     -50.316169      0.28321138   
   2009000   283.92541     -49.995758     -50.28936      -50.28936       0.29360192   
   2010000   268.56525     -49.912757     -50.190475     -50.190475      0.27771827   
   2011000   267.60863     -49.830604     -50.107333     -50.107333      0.27672904   
   2012000   269.40619     -50.11991      -50.398497     -50.398497      0.27858786   
   2013000   257.46904     -50.039796     -50.30604      -50.30604       0.26624389   
   2014000   246.52345     -49.958079     -50.213005     -50.213005      0.25492525   
   2015000   254.62091     -50.025502     -50.288801     -50.288801      0.26329869   
   2016000   257.41521     -49.972772     -50.23896      -50.23896       0.26618822   
   2017000   256.35326     -50.054526     -50.319616     -50.319616      0.26509008   
   2018000   248.56425     -50.06524      -50.322275     -50.322275      0.25703561   
   2019000   246.6759      -50.095106     -50.350189     -50.350189      0.2550829    
   2020000   243.48051     -50.012433     -50.264211     -50.264211      0.25177861   
   2021000   227.96816     -49.969855     -50.205592     -50.205592      0.23573758   
   2022000   229.59506     -50.156786     -50.394206     -50.394206      0.23741993   
   2023000   236.78413     -50.121001     -50.365855     -50.365855      0.244854     
   2024000   235.47384     -49.986309     -50.229808     -50.229808      0.24349906   
   2025000   214.81973     -50.011438     -50.233579     -50.233579      0.22214103   
   2026000   213.35742     -50.094287     -50.314916     -50.314916      0.22062888   
   2027000   207.68323     -50.076499     -50.291261     -50.291261      0.21476131   
   2028000   218.13269     -50.131965     -50.357532     -50.357532      0.22556691   
   2029000   223.96425     -50.095673     -50.32727      -50.32727       0.23159721   
   2030000   207.98745     -50.105114     -50.320189     -50.320189      0.21507591   
   2031000   206.24462     -50.109138     -50.322412     -50.322412      0.21327368   
   2032000   213.30745     -50.002906     -50.223483     -50.223483      0.22057721   
   2033000   202.65437     -50.14451      -50.354071     -50.354071      0.20956107   
   2034000   201.25534     -50.124778     -50.332893     -50.332893      0.20811435   
   2035000   201.03298     -50.20465      -50.412534     -50.412534      0.20788442   
   2036000   184.2554      -50.144037     -50.334572     -50.334572      0.19053504   
   2037000   184.74247     -50.130644     -50.321683     -50.321683      0.19103871   
   2038000   179.67627     -50.145591     -50.331391     -50.331391      0.18579985   
   2039000   187.45766     -50.213057     -50.406903     -50.406903      0.19384644   
   2040000   177.15809     -50.218412     -50.401608     -50.401608      0.18319584   
   2041000   179.57543     -50.191123     -50.376818     -50.376818      0.18569557   
   2042000   166.12679     -50.145198     -50.316986     -50.316986      0.17178858   
   2043000   163.49988     -50.140856     -50.309928     -50.309928      0.16907214   
   2044000   164.66629     -50.221527     -50.391805     -50.391805      0.17027831   
   2045000   161.20094     -50.222892     -50.389587     -50.389587      0.16669486   
   2046000   153.69863     -50.198612     -50.357549     -50.357549      0.15893686   
   2047000   161.37928     -50.187205     -50.354084     -50.354084      0.16687927   
   2048000   161.18312     -50.257191     -50.423868     -50.423868      0.16667643   
   2049000   151.15733     -50.212731     -50.36904      -50.36904       0.15630894   
   2050000   152.15189     -50.162105     -50.319443     -50.319443      0.1573374    
   2051000   145.48595     -50.201249     -50.351693     -50.351693      0.15044428   
   2052000   138.3482      -50.248732     -50.391795     -50.391795      0.14306327   
   2053000   139.4073      -50.286891     -50.43105      -50.43105       0.14415847   
   2054000   140.46309     -50.285263     -50.430513     -50.430513      0.14525023   
   2055000   137.23732     -50.24888      -50.390794     -50.390794      0.14191452   
   2056000   129.95238     -50.256742     -50.391124     -50.391124      0.13438131   
   2057000   132.65399     -50.296653     -50.433828     -50.433828      0.13717499   
   2058000   125.03448     -50.290687     -50.419982     -50.419982      0.1292958    
   2059000   122.70497     -50.289366     -50.416253     -50.416253      0.1268869    
   2060000   120.20615     -50.283055     -50.407358     -50.407358      0.12430291   
   2061000   113.24315     -50.305496     -50.422599     -50.422599      0.11710261   
   2062000   110.9044      -50.346721     -50.461406     -50.461406      0.11468415   
   2063000   110.47105     -50.324388     -50.438624     -50.438624      0.11423603   
   2064000   107.65795     -50.33023      -50.441557     -50.441557      0.11132706   
   2065000   110.82104     -50.317512     -50.43211      -50.43211       0.11459795   
   2066000   106.22052     -50.315049     -50.424889     -50.424889      0.10984063   
   2067000   93.898745     -50.323841     -50.42094      -50.42094       0.097098923  
   2068000   94.579123     -50.351886     -50.449688     -50.449688      0.09780249   
   2069000   88.573281     -50.338025     -50.429617     -50.429617      0.091591961  
   2070000   89.451156     -50.381981     -50.474481     -50.474481      0.092499755  
   2071000   85.242719     -50.369539     -50.457687     -50.457687      0.08814789   
   2072000   86.348479     -50.377496     -50.466787     -50.466787      0.089291336  
   2073000   82.971206     -50.369917     -50.455716     -50.455716      0.085798961  
   2074000   80.606121     -50.389735     -50.473089     -50.473089      0.083353271  
   2075000   75.118748     -50.349961     -50.42764      -50.42764       0.077678882  
   2076000   73.759811     -50.397833     -50.474107     -50.474107      0.076273631  
   2077000   68.841675     -50.388583     -50.459771     -50.459771      0.071187879  
   2078000   63.930816     -50.401957     -50.468067     -50.468067      0.066109652  
   2079000   64.831142     -50.408464     -50.475505     -50.475505      0.067040663  
   2080000   61.464008     -50.4133       -50.476859     -50.476859      0.063558773  
   2081000   57.350374     -50.422522     -50.481827     -50.481827      0.059304941  
   2082000   52.530991     -50.412389     -50.466711     -50.466711      0.054321308  
   2083000   52.646289     -50.443515     -50.497956     -50.497956      0.054440536  
   2084000   48.179378     -50.432371     -50.482192     -50.482192      0.049821387  
   2085000   43.500695     -50.457809     -50.502793     -50.502793      0.044983249  
   2086000   43.288658     -50.445005     -50.489769     -50.489769      0.044763986  
   2087000   38.202455     -50.449826     -50.489331     -50.489331      0.039504439  
   2088000   37.967796     -50.466154     -50.505415     -50.505415      0.039261782  
   2089000   33.737311     -50.466417     -50.501305     -50.501305      0.034887118  
   2090000   29.856385     -50.470261     -50.501135     -50.501135      0.030873925  
   2091000   28.474947     -50.483958     -50.513403     -50.513403      0.029445406  
   2092000   24.817906     -50.494097     -50.519761     -50.519761      0.025663729  
   2093000   21.470767     -50.497169     -50.519372     -50.519372      0.022202515  
   2094000   18.560114     -50.497415     -50.516608     -50.516608      0.019192665  
   2095000   15.136929     -50.50515      -50.520803     -50.520803      0.015652813  
   2096000   12.432649     -50.512108     -50.524964     -50.524964      0.012856368  
   2097000   9.2784034     -50.515954     -50.525549     -50.525549      0.0095946222 
   2098000   6.280855      -50.524107     -50.530602     -50.530602      0.0064949138 
   2099000   3.2521301     -50.531139     -50.534502     -50.534502      0.0033629664 
   2100000   0.28002129    -50.536672     -50.536962     -50.536962      0.00028956474
   2100079   0.04495793    -50.537092     -50.537139     -50.537139      4.6490149e-05
Loop time of 37.9405 on 1 procs for 1000000 steps with 9 atoms

Performance: 227.725 ns/day, 0.105 hours/ns, 26357.070 timesteps/s, 237.214 katom-step/s
98.9% CPU use with 1 MPI tasks x 1 OpenMP threads

MPI task timing breakdown:
Section |  min time  |  avg time  |  max time  |%varavg| %total
---------------------------------------------------------------
Pair    | 32.359     | 32.359     | 32.359     |   0.0 | 85.29
Neigh   | 0.63483    | 0.63483    | 0.63483    |   0.0 |  1.67
Comm    | 0.84496    | 0.84496    | 0.84496    |   0.0 |  2.23
Output  | 0.31383    | 0.31383    | 0.31383    |   0.0 |  0.83
Modify  | 2.892      | 2.892      | 2.892      |   0.0 |  7.62
Other   |            | 0.8963     |            |       |  2.36

Nlocal:              9 ave           9 max           9 min
Histogram: 1 0 0 0 0 0 0 0 0 0
Nghost:             30 ave          30 max          30 min
Histogram: 1 0 0 0 0 0 0 0 0 0
Neighs:              0 ave           0 max           0 min
Histogram: 1 0 0 0 0 0 0 0 0 0
FullNghs:           72 ave          72 max          72 min
Histogram: 1 0 0 0 0 0 0 0 0 0

Total # of neighbors = 72
Ave neighs/atom = 8
Neighbor list builds = 15418
Dangerous builds = 0
write_restart 	./endconf/endconf*3.restart
System init for write_restart ...

Total wall time: 0:01:18
