ITEM: TIMESTEP
0
ITEM: NUMBER OF ATOMS
2000
ITEM: BOX BOUNDS pp pp pp
0.0000000000000000e+00 3.5200000000000003e+01
0.0000000000000000e+00 3.5200000000000003e+01
0.0000000000000000e+00 3.5200000000000003e+01
ITEM: ATOMS id type xs ys zs
1 1 0 0 0
2 1 0.05 0.05 0.05
3 1 0.1 0 0
21 1 0 0.1 0
23 1 0.1 0.1 0
201 1 0 0 0.1
203 1 0.1 0 0.1
221 1 0 0.1 0.1
223 1 0.1 0.1 0.1
4 1 0.15 0.05 0.05
5 1 0.2 0 0
25 1 0.2 0.1 0
205 1 0.2 0 0.1
225 1 0.2 0.1 0.1
6 1 0.25 0.05 0.05
7 1 0.3 0 0
27 1 0.3 0.1 0
207 1 0.3 0 0.1
227 1 0.3 0.1 0.1
8 1 0.35 0.05 0.05
9 1 0.4 0 0
29 1 0.4 0.1 0
209 1 0.4 0 0.1
229 1 0.4 0.1 0.1
10 1 0.45 0.05 0.05
11 1 0.5 0 0
12 1 0.55 0.05 0.05
31 1 0.5 0.1 0
211 1 0.5 0 0.1
231 1 0.5 0.1 0.1
13 1 0.6 0 0
14 1 0.65 0.05 0.05
33 1 0.6 0.1 0
213 1 0.6 0 0.1
233 1 0.6 0.1 0.1
15 1 0.7 0 0
16 1 0.75 0.05 0.05
35 1 0.7 0.1 0
215 1 0.7 0 0.1
235 1 0.7 0.1 0.1
17 1 0.8 0 0
18 1 0.85 0.05 0.05
37 1 0.8 0.1 0
217 1 0.8 0 0.1
237 1 0.8 0.1 0.1
19 1 0.9 0 0
20 1 0.95 0.05 0.05
39 1 0.9 0.1 0
219 1 0.9 0 0.1
239 1 0.9 0.1 0.1
22 1 0.05 0.15 0.05
41 1 0 0.2 0
43 1 0.1 0.2 0
241 1 0 0.2 0.1
243 1 0.1 0.2 0.1
24 1 0.15 0.15 0.05
45 1 0.2 0.2 0
245 1 0.2 0.2 0.1
26 1 0.25 0.15 0.05
47 1 0.3 0.2 0
247 1 0.3 0.2 0.1
28 1 0.35 0.15 0.05
49 1 0.4 0.2 0
249 1 0.4 0.2 0.1
30 1 0.45 0.15 0.05
32 1 0.55 0.15 0.05
51 1 0.5 0.2 0
251 1 0.5 0.2 0.1
34 1 0.65 0.15 0.05
53 1 0.6 0.2 0
253 1 0.6 0.2 0.1
36 1 0.75 0.15 0.05
55 1 0.7 0.2 0
255 1 0.7 0.2 0.1
38 1 0.85 0.15 0.05
57 1 0.8 0.2 0
257 1 0.8 0.2 0.1
40 1 0.95 0.15 0.05
59 1 0.9 0.2 0
259 1 0.9 0.2 0.1
42 1 0.05 0.25 0.05
61 1 0 0.3 0
63 1 0.1 0.3 0
261 1 0 0.3 0.1
263 1 0.1 0.3 0.1
44 1 0.15 0.25 0.05
65 1 0.2 0.3 0
265 1 0.2 0.3 0.1
46 1 0.25 0.25 0.05
67 1 0.3 0.3 0
267 1 0.3 0.3 0.1
48 1 0.35 0.25 0.05
69 1 0.4 0.3 0
269 1 0.4 0.3 0.1
50 1 0.45 0.25 0.05
52 1 0.55 0.25 0.05
71 1 0.5 0.3 0
271 1 0.5 0.3 0.1
54 1 0.65 0.25 0.05
73 1 0.6 0.3 0
273 1 0.6 0.3 0.1
56 1 0.75 0.25 0.05
75 1 0.7 0.3 0
275 1 0.7 0.3 0.1
58 1 0.85 0.25 0.05
77 1 0.8 0.3 0
277 1 0.8 0.3 0.1
60 1 0.95 0.25 0.05
79 1 0.9 0.3 0
279 1 0.9 0.3 0.1
62 1 0.05 0.35 0.05
81 1 0 0.4 0
83 1 0.1 0.4 0
281 1 0 0.4 0.1
283 1 0.1 0.4 0.1
64 1 0.15 0.35 0.05
85 1 0.2 0.4 0
285 1 0.2 0.4 0.1
66 1 0.25 0.35 0.05
87 1 0.3 0.4 0
287 1 0.3 0.4 0.1
68 1 0.35 0.35 0.05
89 1 0.4 0.4 0
289 1 0.4 0.4 0.1
70 1 0.45 0.35 0.05
72 1 0.55 0.35 0.05
91 1 0.5 0.4 0
291 1 0.5 0.4 0.1
74 1 0.65 0.35 0.05
93 1 0.6 0.4 0
293 1 0.6 0.4 0.1
76 1 0.75 0.35 0.05
95 1 0.7 0.4 0
295 1 0.7 0.4 0.1
78 1 0.85 0.35 0.05
97 1 0.8 0.4 0
297 1 0.8 0.4 0.1
80 1 0.95 0.35 0.05
99 1 0.9 0.4 0
299 1 0.9 0.4 0.1
82 1 0.05 0.45 0.05
101 1 0 0.5 0
102 1 0.05 0.55 0.05
103 1 0.1 0.5 0
301 1 0 0.5 0.1
303 1 0.1 0.5 0.1
84 1 0.15 0.45 0.05
104 1 0.15 0.55 0.05
105 1 0.2 0.5 0
305 1 0.2 0.5 0.1
86 1 0.25 0.45 0.05
106 1 0.25 0.55 0.05
107 1 0.3 0.5 0
307 1 0.3 0.5 0.1
88 1 0.35 0.45 0.05
108 1 0.35 0.55 0.05
109 1 0.4 0.5 0
309 1 0.4 0.5 0.1
90 1 0.45 0.45 0.05
92 1 0.55 0.45 0.05
110 1 0.45 0.55 0.05
111 1 0.5 0.5 0
112 1 0.55 0.55 0.05
311 1 0.5 0.5 0.1
94 1 0.65 0.45 0.05
113 1 0.6 0.5 0
114 1 0.65 0.55 0.05
313 1 0.6 0.5 0.1
96 1 0.75 0.45 0.05
115 1 0.7 0.5 0
116 1 0.75 0.55 0.05
315 1 0.7 0.5 0.1
98 1 0.85 0.45 0.05
117 1 0.8 0.5 0
118 1 0.85 0.55 0.05
317 1 0.8 0.5 0.1
100 1 0.95 0.45 0.05
119 1 0.9 0.5 0
120 1 0.95 0.55 0.05
319 1 0.9 0.5 0.1
121 1 0 0.6 0
122 1 0.05 0.65 0.05
123 1 0.1 0.6 0
321 1 0 0.6 0.1
323 1 0.1 0.6 0.1
124 1 0.15 0.65 0.05
125 1 0.2 0.6 0
325 1 0.2 0.6 0.1
126 1 0.25 0.65 0.05
127 1 0.3 0.6 0
327 1 0.3 0.6 0.1
128 1 0.35 0.65 0.05
129 1 0.4 0.6 0
329 1 0.4 0.6 0.1
130 1 0.45 0.65 0.05
131 1 0.5 0.6 0
132 1 0.55 0.65 0.05
331 1 0.5 0.6 0.1
133 1 0.6 0.6 0
134 1 0.65 0.65 0.05
333 1 0.6 0.6 0.1
135 1 0.7 0.6 0
136 1 0.75 0.65 0.05
335 1 0.7 0.6 0.1
137 1 0.8 0.6 0
138 1 0.85 0.65 0.05
337 1 0.8 0.6 0.1
139 1 0.9 0.6 0
140 1 0.95 0.65 0.05
339 1 0.9 0.6 0.1
141 1 0 0.7 0
142 1 0.05 0.75 0.05
143 1 0.1 0.7 0
341 1 0 0.7 0.1
343 1 0.1 0.7 0.1
144 1 0.15 0.75 0.05
145 1 0.2 0.7 0
345 1 0.2 0.7 0.1
146 1 0.25 0.75 0.05
147 1 0.3 0.7 0
347 1 0.3 0.7 0.1
148 1 0.35 0.75 0.05
149 1 0.4 0.7 0
349 1 0.4 0.7 0.1
150 1 0.45 0.75 0.05
151 1 0.5 0.7 0
152 1 0.55 0.75 0.05
351 1 0.5 0.7 0.1
153 1 0.6 0.7 0
154 1 0.65 0.75 0.05
353 1 0.6 0.7 0.1
155 1 0.7 0.7 0
156 1 0.75 0.75 0.05
355 1 0.7 0.7 0.1
157 1 0.8 0.7 0
158 1 0.85 0.75 0.05
357 1 0.8 0.7 0.1
159 1 0.9 0.7 0
160 1 0.95 0.75 0.05
359 1 0.9 0.7 0.1
161 1 0 0.8 0
162 1 0.05 0.85 0.05
163 1 0.1 0.8 0
361 1 0 0.8 0.1
363 1 0.1 0.8 0.1
164 1 0.15 0.85 0.05
165 1 0.2 0.8 0
365 1 0.2 0.8 0.1
166 1 0.25 0.85 0.05
167 1 0.3 0.8 0
367 1 0.3 0.8 0.1
168 1 0.35 0.85 0.05
169 1 0.4 0.8 0
369 1 0.4 0.8 0.1
170 1 0.45 0.85 0.05
171 1 0.5 0.8 0
172 1 0.55 0.85 0.05
371 1 0.5 0.8 0.1
173 1 0.6 0.8 0
174 1 0.65 0.85 0.05
373 1 0.6 0.8 0.1
175 1 0.7 0.8 0
176 1 0.75 0.85 0.05
375 1 0.7 0.8 0.1
177 1 0.8 0.8 0
178 1 0.85 0.85 0.05
377 1 0.8 0.8 0.1
179 1 0.9 0.8 0
180 1 0.95 0.85 0.05
379 1 0.9 0.8 0.1
181 1 0 0.9 0
182 1 0.05 0.95 0.05
183 1 0.1 0.9 0
381 1 0 0.9 0.1
383 1 0.1 0.9 0.1
184 1 0.15 0.95 0.05
185 1 0.2 0.9 0
385 1 0.2 0.9 0.1
186 1 0.25 0.95 0.05
187 1 0.3 0.9 0
387 1 0.3 0.9 0.1
188 1 0.35 0.95 0.05
189 1 0.4 0.9 0
389 1 0.4 0.9 0.1
190 1 0.45 0.95 0.05
191 1 0.5 0.9 0
192 1 0.55 0.95 0.05
391 1 0.5 0.9 0.1
193 1 0.6 0.9 0
194 1 0.65 0.95 0.05
393 1 0.6 0.9 0.1
195 1 0.7 0.9 0
196 1 0.75 0.95 0.05
395 1 0.7 0.9 0.1
197 1 0.8 0.9 0
198 1 0.85 0.95 0.05
397 1 0.8 0.9 0.1
199 1 0.9 0.9 0
200 1 0.95 0.95 0.05
399 1 0.9 0.9 0.1
202 1 0.05 0.05 0.15
401 1 0 0 0.2
403 1 0.1 0 0.2
421 1 0 0.1 0.2
423 1 0.1 0.1 0.2
204 1 0.15 0.05 0.15
405 1 0.2 0 0.2
425 1 0.2 0.1 0.2
206 1 0.25 0.05 0.15
407 1 0.3 0 0.2
427 1 0.3 0.1 0.2
208 1 0.35 0.05 0.15
409 1 0.4 0 0.2
429 1 0.4 0.1 0.2
210 1 0.45 0.05 0.15
212 1 0.55 0.05 0.15
411 1 0.5 0 0.2
431 1 0.5 0.1 0.2
214 1 0.65 0.05 0.15
413 1 0.6 0 0.2
433 1 0.6 0.1 0.2
216 1 0.75 0.05 0.15
415 1 0.7 0 0.2
435 1 0.7 0.1 0.2
218 1 0.85 0.05 0.15
417 1 0.8 0 0.2
437 1 0.8 0.1 0.2
220 1 0.95 0.05 0.15
419 1 0.9 0 0.2
439 1 0.9 0.1 0.2
222 1 0.05 0.15 0.15
441 1 0 0.2 0.2
443 1 0.1 0.2 0.2
224 1 0.15 0.15 0.15
445 1 0.2 0.2 0.2
226 1 0.25 0.15 0.15
447 1 0.3 0.2 0.2
228 1 0.35 0.15 0.15
449 1 0.4 0.2 0.2
230 1 0.45 0.15 0.15
232 1 0.55 0.15 0.15
451 1 0.5 0.2 0.2
234 1 0.65 0.15 0.15
453 1 0.6 0.2 0.2
236 1 0.75 0.15 0.15
455 1 0.7 0.2 0.2
238 1 0.85 0.15 0.15
457 1 0.8 0.2 0.2
240 1 0.95 0.15 0.15
459 1 0.9 0.2 0.2
242 1 0.05 0.25 0.15
461 1 0 0.3 0.2
463 1 0.1 0.3 0.2
244 1 0.15 0.25 0.15
465 1 0.2 0.3 0.2
246 1 0.25 0.25 0.15
467 1 0.3 0.3 0.2
248 1 0.35 0.25 0.15
469 1 0.4 0.3 0.2
250 1 0.45 0.25 0.15
252 1 0.55 0.25 0.15
471 1 0.5 0.3 0.2
254 1 0.65 0.25 0.15
473 1 0.6 0.3 0.2
256 1 0.75 0.25 0.15
475 1 0.7 0.3 0.2
258 1 0.85 0.25 0.15
477 1 0.8 0.3 0.2
260 1 0.95 0.25 0.15
479 1 0.9 0.3 0.2
262 1 0.05 0.35 0.15
481 1 0 0.4 0.2
483 1 0.1 0.4 0.2
264 1 0.15 0.35 0.15
485 1 0.2 0.4 0.2
266 1 0.25 0.35 0.15
487 1 0.3 0.4 0.2
268 1 0.35 0.35 0.15
489 1 0.4 0.4 0.2
270 1 0.45 0.35 0.15
272 1 0.55 0.35 0.15
491 1 0.5 0.4 0.2
274 1 0.65 0.35 0.15
493 1 0.6 0.4 0.2
276 1 0.75 0.35 0.15
495 1 0.7 0.4 0.2
278 1 0.85 0.35 0.15
497 1 0.8 0.4 0.2
280 1 0.95 0.35 0.15
499 1 0.9 0.4 0.2
282 1 0.05 0.45 0.15
302 1 0.05 0.55 0.15
501 1 0 0.5 0.2
503 1 0.1 0.5 0.2
284 1 0.15 0.45 0.15
304 1 0.15 0.55 0.15
505 1 0.2 0.5 0.2
286 1 0.25 0.45 0.15
306 1 0.25 0.55 0.15
507 1 0.3 0.5 0.2
288 1 0.35 0.45 0.15
308 1 0.35 0.55 0.15
509 1 0.4 0.5 0.2
290 1 0.45 0.45 0.15
292 1 0.55 0.45 0.15
310 1 0.45 0.55 0.15
312 1 0.55 0.55 0.15
511 1 0.5 0.5 0.2
294 1 0.65 0.45 0.15
314 1 0.65 0.55 0.15
513 1 0.6 0.5 0.2
296 1 0.75 0.45 0.15
316 1 0.75 0.55 0.15
515 1 0.7 0.5 0.2
298 1 0.85 0.45 0.15
318 1 0.85 0.55 0.15
517 1 0.8 0.5 0.2
300 1 0.95 0.45 0.15
320 1 0.95 0.55 0.15
519 1 0.9 0.5 0.2
322 1 0.05 0.65 0.15
521 1 0 0.6 0.2
523 1 0.1 0.6 0.2
324 1 0.15 0.65 0.15
525 1 0.2 0.6 0.2
326 1 0.25 0.65 0.15
527 1 0.3 0.6 0.2
328 1 0.35 0.65 0.15
529 1 0.4 0.6 0.2
330 1 0.45 0.65 0.15
332 1 0.55 0.65 0.15
531 1 0.5 0.6 0.2
334 1 0.65 0.65 0.15
533 1 0.6 0.6 0.2
336 1 0.75 0.65 0.15
535 1 0.7 0.6 0.2
338 1 0.85 0.65 0.15
537 1 0.8 0.6 0.2
340 1 0.95 0.65 0.15
539 1 0.9 0.6 0.2
342 1 0.05 0.75 0.15
541 1 0 0.7 0.2
543 1 0.1 0.7 0.2
344 1 0.15 0.75 0.15
545 1 0.2 0.7 0.2
346 1 0.25 0.75 0.15
547 1 0.3 0.7 0.2
348 1 0.35 0.75 0.15
549 1 0.4 0.7 0.2
350 1 0.45 0.75 0.15
352 1 0.55 0.75 0.15
551 1 0.5 0.7 0.2
354 1 0.65 0.75 0.15
553 1 0.6 0.7 0.2
356 1 0.75 0.75 0.15
555 1 0.7 0.7 0.2
358 1 0.85 0.75 0.15
557 1 0.8 0.7 0.2
360 1 0.95 0.75 0.15
559 1 0.9 0.7 0.2
362 1 0.05 0.85 0.15
561 1 0 0.8 0.2
563 1 0.1 0.8 0.2
364 1 0.15 0.85 0.15
565 1 0.2 0.8 0.2
366 1 0.25 0.85 0.15
567 1 0.3 0.8 0.2
368 1 0.35 0.85 0.15
569 1 0.4 0.8 0.2
370 1 0.45 0.85 0.15
372 1 0.55 0.85 0.15
571 1 0.5 0.8 0.2
374 1 0.65 0.85 0.15
573 1 0.6 0.8 0.2
376 1 0.75 0.85 0.15
575 1 0.7 0.8 0.2
378 1 0.85 0.85 0.15
577 1 0.8 0.8 0.2
380 1 0.95 0.85 0.15
579 1 0.9 0.8 0.2
382 1 0.05 0.95 0.15
581 1 0 0.9 0.2
583 1 0.1 0.9 0.2
384 1 0.15 0.95 0.15
585 1 0.2 0.9 0.2
386 1 0.25 0.95 0.15
587 1 0.3 0.9 0.2
388 1 0.35 0.95 0.15
589 1 0.4 0.9 0.2
390 1 0.45 0.95 0.15
392 1 0.55 0.95 0.15
591 1 0.5 0.9 0.2
394 1 0.65 0.95 0.15
593 1 0.6 0.9 0.2
396 1 0.75 0.95 0.15
595 1 0.7 0.9 0.2
398 1 0.85 0.95 0.15
597 1 0.8 0.9 0.2
400 1 0.95 0.95 0.15
599 1 0.9 0.9 0.2
402 1 0.05 0.05 0.25
601 1 0 0 0.3
603 1 0.1 0 0.3
621 1 0 0.1 0.3
623 1 0.1 0.1 0.3
404 1 0.15 0.05 0.25
605 1 0.2 0 0.3
625 1 0.2 0.1 0.3
406 1 0.25 0.05 0.25
607 1 0.3 0 0.3
627 1 0.3 0.1 0.3
408 1 0.35 0.05 0.25
609 1 0.4 0 0.3
629 1 0.4 0.1 0.3
410 1 0.45 0.05 0.25
412 1 0.55 0.05 0.25
611 1 0.5 0 0.3
631 1 0.5 0.1 0.3
414 1 0.65 0.05 0.25
613 1 0.6 0 0.3
633 1 0.6 0.1 0.3
416 1 0.75 0.05 0.25
615 1 0.7 0 0.3
635 1 0.7 0.1 0.3
418 1 0.85 0.05 0.25
617 1 0.8 0 0.3
637 1 0.8 0.1 0.3
420 1 0.95 0.05 0.25
619 1 0.9 0 0.3
639 1 0.9 0.1 0.3
422 1 0.05 0.15 0.25
641 1 0 0.2 0.3
643 1 0.1 0.2 0.3
424 1 0.15 0.15 0.25
645 1 0.2 0.2 0.3
426 1 0.25 0.15 0.25
647 1 0.3 0.2 0.3
428 1 0.35 0.15 0.25
649 1 0.4 0.2 0.3
430 1 0.45 0.15 0.25
432 1 0.55 0.15 0.25
651 1 0.5 0.2 0.3
434 1 0.65 0.15 0.25
653 1 0.6 0.2 0.3
436 1 0.75 0.15 0.25
655 1 0.7 0.2 0.3
438 1 0.85 0.15 0.25
657 1 0.8 0.2 0.3
440 1 0.95 0.15 0.25
659 1 0.9 0.2 0.3
442 1 0.05 0.25 0.25
661 1 0 0.3 0.3
663 1 0.1 0.3 0.3
444 1 0.15 0.25 0.25
665 1 0.2 0.3 0.3
446 1 0.25 0.25 0.25
667 1 0.3 0.3 0.3
448 1 0.35 0.25 0.25
669 1 0.4 0.3 0.3
450 1 0.45 0.25 0.25
452 1 0.55 0.25 0.25
671 1 0.5 0.3 0.3
454 1 0.65 0.25 0.25
673 1 0.6 0.3 0.3
456 1 0.75 0.25 0.25
675 1 0.7 0.3 0.3
458 1 0.85 0.25 0.25
677 1 0.8 0.3 0.3
460 1 0.95 0.25 0.25
679 1 0.9 0.3 0.3
462 1 0.05 0.35 0.25
681 1 0 0.4 0.3
683 1 0.1 0.4 0.3
464 1 0.15 0.35 0.25
685 1 0.2 0.4 0.3
466 1 0.25 0.35 0.25
687 1 0.3 0.4 0.3
468 1 0.35 0.35 0.25
689 1 0.4 0.4 0.3
470 1 0.45 0.35 0.25
472 1 0.55 0.35 0.25
691 1 0.5 0.4 0.3
474 1 0.65 0.35 0.25
693 1 0.6 0.4 0.3
476 1 0.75 0.35 0.25
695 1 0.7 0.4 0.3
478 1 0.85 0.35 0.25
697 1 0.8 0.4 0.3
480 1 0.95 0.35 0.25
699 1 0.9 0.4 0.3
482 1 0.05 0.45 0.25
502 1 0.05 0.55 0.25
701 1 0 0.5 0.3
703 1 0.1 0.5 0.3
484 1 0.15 0.45 0.25
504 1 0.15 0.55 0.25
705 1 0.2 0.5 0.3
486 1 0.25 0.45 0.25
506 1 0.25 0.55 0.25
707 1 0.3 0.5 0.3
488 1 0.35 0.45 0.25
508 1 0.35 0.55 0.25
709 1 0.4 0.5 0.3
490 1 0.45 0.45 0.25
492 1 0.55 0.45 0.25
510 1 0.45 0.55 0.25
512 1 0.55 0.55 0.25
711 1 0.5 0.5 0.3
494 1 0.65 0.45 0.25
514 1 0.65 0.55 0.25
713 1 0.6 0.5 0.3
496 1 0.75 0.45 0.25
516 1 0.75 0.55 0.25
715 1 0.7 0.5 0.3
498 1 0.85 0.45 0.25
518 1 0.85 0.55 0.25
717 1 0.8 0.5 0.3
500 1 0.95 0.45 0.25
520 1 0.95 0.55 0.25
719 1 0.9 0.5 0.3
522 1 0.05 0.65 0.25
721 1 0 0.6 0.3
723 1 0.1 0.6 0.3
524 1 0.15 0.65 0.25
725 1 0.2 0.6 0.3
526 1 0.25 0.65 0.25
727 1 0.3 0.6 0.3
528 1 0.35 0.65 0.25
729 1 0.4 0.6 0.3
530 1 0.45 0.65 0.25
532 1 0.55 0.65 0.25
731 1 0.5 0.6 0.3
534 1 0.65 0.65 0.25
733 1 0.6 0.6 0.3
536 1 0.75 0.65 0.25
735 1 0.7 0.6 0.3
538 1 0.85 0.65 0.25
737 1 0.8 0.6 0.3
540 1 0.95 0.65 0.25
739 1 0.9 0.6 0.3
542 1 0.05 0.75 0.25
741 1 0 0.7 0.3
743 1 0.1 0.7 0.3
544 1 0.15 0.75 0.25
745 1 0.2 0.7 0.3
546 1 0.25 0.75 0.25
747 1 0.3 0.7 0.3
548 1 0.35 0.75 0.25
749 1 0.4 0.7 0.3
550 1 0.45 0.75 0.25
552 1 0.55 0.75 0.25
751 1 0.5 0.7 0.3
554 1 0.65 0.75 0.25
753 1 0.6 0.7 0.3
556 1 0.75 0.75 0.25
755 1 0.7 0.7 0.3
558 1 0.85 0.75 0.25
757 1 0.8 0.7 0.3
560 1 0.95 0.75 0.25
759 1 0.9 0.7 0.3
562 1 0.05 0.85 0.25
761 1 0 0.8 0.3
763 1 0.1 0.8 0.3
564 1 0.15 0.85 0.25
765 1 0.2 0.8 0.3
566 1 0.25 0.85 0.25
767 1 0.3 0.8 0.3
568 1 0.35 0.85 0.25
769 1 0.4 0.8 0.3
570 1 0.45 0.85 0.25
572 1 0.55 0.85 0.25
771 1 0.5 0.8 0.3
574 1 0.65 0.85 0.25
773 1 0.6 0.8 0.3
576 1 0.75 0.85 0.25
775 1 0.7 0.8 0.3
578 1 0.85 0.85 0.25
777 1 0.8 0.8 0.3
580 1 0.95 0.85 0.25
779 1 0.9 0.8 0.3
582 1 0.05 0.95 0.25
781 1 0 0.9 0.3
783 1 0.1 0.9 0.3
584 1 0.15 0.95 0.25
785 1 0.2 0.9 0.3
586 1 0.25 0.95 0.25
787 1 0.3 0.9 0.3
588 1 0.35 0.95 0.25
789 1 0.4 0.9 0.3
590 1 0.45 0.95 0.25
592 1 0.55 0.95 0.25
791 1 0.5 0.9 0.3
594 1 0.65 0.95 0.25
793 1 0.6 0.9 0.3
596 1 0.75 0.95 0.25
795 1 0.7 0.9 0.3
598 1 0.85 0.95 0.25
797 1 0.8 0.9 0.3
600 1 0.95 0.95 0.25
799 1 0.9 0.9 0.3
602 1 0.05 0.05 0.35
801 1 0 0 0.4
803 1 0.1 0 0.4
821 1 0 0.1 0.4
823 1 0.1 0.1 0.4
604 1 0.15 0.05 0.35
805 1 0.2 0 0.4
825 1 0.2 0.1 0.4
606 1 0.25 0.05 0.35
807 1 0.3 0 0.4
827 1 0.3 0.1 0.4
608 1 0.35 0.05 0.35
809 1 0.4 0 0.4
829 1 0.4 0.1 0.4
610 1 0.45 0.05 0.35
612 1 0.55 0.05 0.35
811 1 0.5 0 0.4
831 1 0.5 0.1 0.4
614 1 0.65 0.05 0.35
813 1 0.6 0 0.4
833 1 0.6 0.1 0.4
616 1 0.75 0.05 0.35
815 1 0.7 0 0.4
835 1 0.7 0.1 0.4
618 1 0.85 0.05 0.35
817 1 0.8 0 0.4
837 1 0.8 0.1 0.4
620 1 0.95 0.05 0.35
819 1 0.9 0 0.4
839 1 0.9 0.1 0.4
622 1 0.05 0.15 0.35
841 1 0 0.2 0.4
843 1 0.1 0.2 0.4
624 1 0.15 0.15 0.35
845 1 0.2 0.2 0.4
626 1 0.25 0.15 0.35
847 1 0.3 0.2 0.4
628 1 0.35 0.15 0.35
849 1 0.4 0.2 0.4
630 1 0.45 0.15 0.35
632 1 0.55 0.15 0.35
851 1 0.5 0.2 0.4
634 1 0.65 0.15 0.35
853 1 0.6 0.2 0.4
636 1 0.75 0.15 0.35
855 1 0.7 0.2 0.4
638 1 0.85 0.15 0.35
857 1 0.8 0.2 0.4
640 1 0.95 0.15 0.35
859 1 0.9 0.2 0.4
642 1 0.05 0.25 0.35
861 1 0 0.3 0.4
863 1 0.1 0.3 0.4
644 1 0.15 0.25 0.35
865 1 0.2 0.3 0.4
646 1 0.25 0.25 0.35
867 1 0.3 0.3 0.4
648 1 0.35 0.25 0.35
869 1 0.4 0.3 0.4
650 1 0.45 0.25 0.35
652 1 0.55 0.25 0.35
871 1 0.5 0.3 0.4
654 1 0.65 0.25 0.35
873 1 0.6 0.3 0.4
656 1 0.75 0.25 0.35
875 1 0.7 0.3 0.4
658 1 0.85 0.25 0.35
877 1 0.8 0.3 0.4
660 1 0.95 0.25 0.35
879 1 0.9 0.3 0.4
662 1 0.05 0.35 0.35
881 1 0 0.4 0.4
883 1 0.1 0.4 0.4
664 1 0.15 0.35 0.35
885 1 0.2 0.4 0.4
666 1 0.25 0.35 0.35
887 1 0.3 0.4 0.4
668 1 0.35 0.35 0.35
889 1 0.4 0.4 0.4
670 1 0.45 0.35 0.35
672 1 0.55 0.35 0.35
891 1 0.5 0.4 0.4
674 1 0.65 0.35 0.35
893 1 0.6 0.4 0.4
676 1 0.75 0.35 0.35
895 1 0.7 0.4 0.4
678 1 0.85 0.35 0.35
897 1 0.8 0.4 0.4
680 1 0.95 0.35 0.35
899 1 0.9 0.4 0.4
682 1 0.05 0.45 0.35
702 1 0.05 0.55 0.35
901 1 0 0.5 0.4
903 1 0.1 0.5 0.4
684 1 0.15 0.45 0.35
704 1 0.15 0.55 0.35
905 1 0.2 0.5 0.4
686 1 0.25 0.45 0.35
706 1 0.25 0.55 0.35
907 1 0.3 0.5 0.4
688 1 0.35 0.45 0.35
708 1 0.35 0.55 0.35
909 1 0.4 0.5 0.4
690 1 0.45 0.45 0.35
692 1 0.55 0.45 0.35
710 1 0.45 0.55 0.35
712 1 0.55 0.55 0.35
911 1 0.5 0.5 0.4
694 1 0.65 0.45 0.35
714 1 0.65 0.55 0.35
913 1 0.6 0.5 0.4
696 1 0.75 0.45 0.35
716 1 0.75 0.55 0.35
915 1 0.7 0.5 0.4
698 1 0.85 0.45 0.35
718 1 0.85 0.55 0.35
917 1 0.8 0.5 0.4
700 1 0.95 0.45 0.35
720 1 0.95 0.55 0.35
919 1 0.9 0.5 0.4
722 1 0.05 0.65 0.35
921 1 0 0.6 0.4
923 1 0.1 0.6 0.4
724 1 0.15 0.65 0.35
925 1 0.2 0.6 0.4
726 1 0.25 0.65 0.35
927 1 0.3 0.6 0.4
728 1 0.35 0.65 0.35
929 1 0.4 0.6 0.4
730 1 0.45 0.65 0.35
732 1 0.55 0.65 0.35
931 1 0.5 0.6 0.4
734 1 0.65 0.65 0.35
933 1 0.6 0.6 0.4
736 1 0.75 0.65 0.35
935 1 0.7 0.6 0.4
738 1 0.85 0.65 0.35
937 1 0.8 0.6 0.4
740 1 0.95 0.65 0.35
939 1 0.9 0.6 0.4
742 1 0.05 0.75 0.35
941 1 0 0.7 0.4
943 1 0.1 0.7 0.4
744 1 0.15 0.75 0.35
945 1 0.2 0.7 0.4
746 1 0.25 0.75 0.35
947 1 0.3 0.7 0.4
748 1 0.35 0.75 0.35
949 1 0.4 0.7 0.4
750 1 0.45 0.75 0.35
752 1 0.55 0.75 0.35
951 1 0.5 0.7 0.4
754 1 0.65 0.75 0.35
953 1 0.6 0.7 0.4
756 1 0.75 0.75 0.35
955 1 0.7 0.7 0.4
758 1 0.85 0.75 0.35
957 1 0.8 0.7 0.4
760 1 0.95 0.75 0.35
959 1 0.9 0.7 0.4
762 1 0.05 0.85 0.35
961 1 0 0.8 0.4
963 1 0.1 0.8 0.4
764 1 0.15 0.85 0.35
965 1 0.2 0.8 0.4
766 1 0.25 0.85 0.35
967 1 0.3 0.8 0.4
768 1 0.35 0.85 0.35
969 1 0.4 0.8 0.4
770 1 0.45 0.85 0.35
772 1 0.55 0.85 0.35
971 1 0.5 0.8 0.4
774 1 0.65 0.85 0.35
973 1 0.6 0.8 0.4
776 1 0.75 0.85 0.35
975 1 0.7 0.8 0.4
778 1 0.85 0.85 0.35
977 1 0.8 0.8 0.4
780 1 0.95 0.85 0.35
979 1 0.9 0.8 0.4
782 1 0.05 0.95 0.35
981 1 0 0.9 0.4
983 1 0.1 0.9 0.4
784 1 0.15 0.95 0.35
985 1 0.2 0.9 0.4
786 1 0.25 0.95 0.35
987 1 0.3 0.9 0.4
788 1 0.35 0.95 0.35
989 1 0.4 0.9 0.4
790 1 0.45 0.95 0.35
792 1 0.55 0.95 0.35
991 1 0.5 0.9 0.4
794 1 0.65 0.95 0.35
993 1 0.6 0.9 0.4
796 1 0.75 0.95 0.35
995 1 0.7 0.9 0.4
798 1 0.85 0.95 0.35
997 1 0.8 0.9 0.4
800 1 0.95 0.95 0.35
999 1 0.9 0.9 0.4
802 1 0.05 0.05 0.45
1001 1 0 0 0.5
1002 1 0.05 0.05 0.55
1003 1 0.1 0 0.5
1021 1 0 0.1 0.5
1023 1 0.1 0.1 0.5
804 1 0.15 0.05 0.45
1004 1 0.15 0.05 0.55
1005 1 0.2 0 0.5
1025 1 0.2 0.1 0.5
806 1 0.25 0.05 0.45
1006 1 0.25 0.05 0.55
1007 1 0.3 0 0.5
1027 1 0.3 0.1 0.5
808 1 0.35 0.05 0.45
1008 1 0.35 0.05 0.55
1009 1 0.4 0 0.5
1029 1 0.4 0.1 0.5
810 1 0.45 0.05 0.45
812 1 0.55 0.05 0.45
1010 1 0.45 0.05 0.55
1011 1 0.5 0 0.5
1012 1 0.55 0.05 0.55
1031 1 0.5 0.1 0.5
814 1 0.65 0.05 0.45
1013 1 0.6 0 0.5
1014 1 0.65 0.05 0.55
1033 1 0.6 0.1 0.5
816 1 0.75 0.05 0.45
1015 1 0.7 0 0.5
1016 1 0.75 0.05 0.55
1035 1 0.7 0.1 0.5
818 1 0.85 0.05 0.45
1017 1 0.8 0 0.5
1018 1 0.85 0.05 0.55
1037 1 0.8 0.1 0.5
820 1 0.95 0.05 0.45
1019 1 0.9 0 0.5
1020 1 0.95 0.05 0.55
1039 1 0.9 0.1 0.5
822 1 0.05 0.15 0.45
1022 1 0.05 0.15 0.55
1041 1 0 0.2 0.5
1043 1 0.1 0.2 0.5
824 1 0.15 0.15 0.45
1024 1 0.15 0.15 0.55
1045 1 0.2 0.2 0.5
826 1 0.25 0.15 0.45
1026 1 0.25 0.15 0.55
1047 1 0.3 0.2 0.5
828 1 0.35 0.15 0.45
1028 1 0.35 0.15 0.55
1049 1 0.4 0.2 0.5
830 1 0.45 0.15 0.45
832 1 0.55 0.15 0.45
1030 1 0.45 0.15 0.55
1032 1 0.55 0.15 0.55
1051 1 0.5 0.2 0.5
834 1 0.65 0.15 0.45
1034 1 0.65 0.15 0.55
1053 1 0.6 0.2 0.5
836 1 0.75 0.15 0.45
1036 1 0.75 0.15 0.55
1055 1 0.7 0.2 0.5
838 1 0.85 0.15 0.45
1038 1 0.85 0.15 0.55
1057 1 0.8 0.2 0.5
840 1 0.95 0.15 0.45
1040 1 0.95 0.15 0.55
1059 1 0.9 0.2 0.5
842 1 0.05 0.25 0.45
1042 1 0.05 0.25 0.55
1061 1 0 0.3 0.5
1063 1 0.1 0.3 0.5
844 1 0.15 0.25 0.45
1044 1 0.15 0.25 0.55
1065 1 0.2 0.3 0.5
846 1 0.25 0.25 0.45
1046 1 0.25 0.25 0.55
1067 1 0.3 0.3 0.5
848 1 0.35 0.25 0.45
1048 1 0.35 0.25 0.55
1069 1 0.4 0.3 0.5
850 1 0.45 0.25 0.45
852 1 0.55 0.25 0.45
1050 1 0.45 0.25 0.55
1052 1 0.55 0.25 0.55
1071 1 0.5 0.3 0.5
854 1 0.65 0.25 0.45
1054 1 0.65 0.25 0.55
1073 1 0.6 0.3 0.5
856 1 0.75 0.25 0.45
1056 1 0.75 0.25 0.55
1075 1 0.7 0.3 0.5
858 1 0.85 0.25 0.45
1058 1 0.85 0.25 0.55
1077 1 0.8 0.3 0.5
860 1 0.95 0.25 0.45
1060 1 0.95 0.25 0.55
1079 1 0.9 0.3 0.5
862 1 0.05 0.35 0.45
1062 1 0.05 0.35 0.55
1081 1 0 0.4 0.5
1083 1 0.1 0.4 0.5
864 1 0.15 0.35 0.45
1064 1 0.15 0.35 0.55
1085 1 0.2 0.4 0.5
866 1 0.25 0.35 0.45
1066 1 0.25 0.35 0.55
1087 1 0.3 0.4 0.5
868 1 0.35 0.35 0.45
1068 1 0.35 0.35 0.55
1089 1 0.4 0.4 0.5
870 1 0.45 0.35 0.45
872 1 0.55 0.35 0.45
1070 1 0.45 0.35 0.55
1072 1 0.55 0.35 0.55
1091 1 0.5 0.4 0.5
874 1 0.65 0.35 0.45
1074 1 0.65 0.35 0.55
1093 1 0.6 0.4 0.5
876 1 0.75 0.35 0.45
1076 1 0.75 0.35 0.55
1095 1 0.7 0.4 0.5
878 1 0.85 0.35 0.45
1078 1 0.85 0.35 0.55
1097 1 0.8 0.4 0.5
880 1 0.95 0.35 0.45
1080 1 0.95 0.35 0.55
1099 1 0.9 0.4 0.5
882 1 0.05 0.45 0.45
902 1 0.05 0.55 0.45
1082 1 0.05 0.45 0.55
1101 1 0 0.5 0.5
1102 1 0.05 0.55 0.55
1103 1 0.1 0.5 0.5
884 1 0.15 0.45 0.45
904 1 0.15 0.55 0.45
1084 1 0.15 0.45 0.55
1104 1 0.15 0.55 0.55
1105 1 0.2 0.5 0.5
886 1 0.25 0.45 0.45
906 1 0.25 0.55 0.45
1086 1 0.25 0.45 0.55
1106 1 0.25 0.55 0.55
1107 1 0.3 0.5 0.5
888 1 0.35 0.45 0.45
908 1 0.35 0.55 0.45
1088 1 0.35 0.45 0.55
1108 1 0.35 0.55 0.55
1109 1 0.4 0.5 0.5
890 1 0.45 0.45 0.45
892 1 0.55 0.45 0.45
910 1 0.45 0.55 0.45
912 1 0.55 0.55 0.45
1090 1 0.45 0.45 0.55
1092 1 0.55 0.45 0.55
1110 1 0.45 0.55 0.55
1111 1 0.5 0.5 0.5
1112 1 0.55 0.55 0.55
894 1 0.65 0.45 0.45
914 1 0.65 0.55 0.45
1094 1 0.65 0.45 0.55
1113 1 0.6 0.5 0.5
1114 1 0.65 0.55 0.55
896 1 0.75 0.45 0.45
916 1 0.75 0.55 0.45
1096 1 0.75 0.45 0.55
1115 1 0.7 0.5 0.5
1116 1 0.75 0.55 0.55
898 1 0.85 0.45 0.45
918 1 0.85 0.55 0.45
1098 1 0.85 0.45 0.55
1117 1 0.8 0.5 0.5
1118 1 0.85 0.55 0.55
900 1 0.95 0.45 0.45
920 1 0.95 0.55 0.45
1100 1 0.95 0.45 0.55
1119 1 0.9 0.5 0.5
1120 1 0.95 0.55 0.55
922 1 0.05 0.65 0.45
1121 1 0 0.6 0.5
1122 1 0.05 0.65 0.55
1123 1 0.1 0.6 0.5
924 1 0.15 0.65 0.45
1124 1 0.15 0.65 0.55
1125 1 0.2 0.6 0.5
926 1 0.25 0.65 0.45
1126 1 0.25 0.65 0.55
1127 1 0.3 0.6 0.5
928 1 0.35 0.65 0.45
1128 1 0.35 0.65 0.55
1129 1 0.4 0.6 0.5
930 1 0.45 0.65 0.45
932 1 0.55 0.65 0.45
1130 1 0.45 0.65 0.55
1131 1 0.5 0.6 0.5
1132 1 0.55 0.65 0.55
934 1 0.65 0.65 0.45
1133 1 0.6 0.6 0.5
1134 1 0.65 0.65 0.55
936 1 0.75 0.65 0.45
1135 1 0.7 0.6 0.5
1136 1 0.75 0.65 0.55
938 1 0.85 0.65 0.45
1137 1 0.8 0.6 0.5
1138 1 0.85 0.65 0.55
940 1 0.95 0.65 0.45
1139 1 0.9 0.6 0.5
1140 1 0.95 0.65 0.55
942 1 0.05 0.75 0.45
1141 1 0 0.7 0.5
1142 1 0.05 0.75 0.55
1143 1 0.1 0.7 0.5
944 1 0.15 0.75 0.45
1144 1 0.15 0.75 0.55
1145 1 0.2 0.7 0.5
946 1 0.25 0.75 0.45
1146 1 0.25 0.75 0.55
1147 1 0.3 0.7 0.5
948 1 0.35 0.75 0.45
1148 1 0.35 0.75 0.55
1149 1 0.4 0.7 0.5
950 1 0.45 0.75 0.45
952 1 0.55 0.75 0.45
1150 1 0.45 0.75 0.55
1151 1 0.5 0.7 0.5
1152 1 0.55 0.75 0.55
954 1 0.65 0.75 0.45
1153 1 0.6 0.7 0.5
1154 1 0.65 0.75 0.55
956 1 0.75 0.75 0.45
1155 1 0.7 0.7 0.5
1156 1 0.75 0.75 0.55
958 1 0.85 0.75 0.45
1157 1 0.8 0.7 0.5
1158 1 0.85 0.75 0.55
960 1 0.95 0.75 0.45
1159 1 0.9 0.7 0.5
1160 1 0.95 0.75 0.55
962 1 0.05 0.85 0.45
1161 1 0 0.8 0.5
1162 1 0.05 0.85 0.55
1163 1 0.1 0.8 0.5
964 1 0.15 0.85 0.45
1164 1 0.15 0.85 0.55
1165 1 0.2 0.8 0.5
966 1 0.25 0.85 0.45
1166 1 0.25 0.85 0.55
1167 1 0.3 0.8 0.5
968 1 0.35 0.85 0.45
1168 1 0.35 0.85 0.55
1169 1 0.4 0.8 0.5
970 1 0.45 0.85 0.45
972 1 0.55 0.85 0.45
1170 1 0.45 0.85 0.55
1171 1 0.5 0.8 0.5
1172 1 0.55 0.85 0.55
974 1 0.65 0.85 0.45
1173 1 0.6 0.8 0.5
1174 1 0.65 0.85 0.55
976 1 0.75 0.85 0.45
1175 1 0.7 0.8 0.5
1176 1 0.75 0.85 0.55
978 1 0.85 0.85 0.45
1177 1 0.8 0.8 0.5
1178 1 0.85 0.85 0.55
980 1 0.95 0.85 0.45
1179 1 0.9 0.8 0.5
1180 1 0.95 0.85 0.55
982 1 0.05 0.95 0.45
1181 1 0 0.9 0.5
1182 1 0.05 0.95 0.55
1183 1 0.1 0.9 0.5
984 1 0.15 0.95 0.45
1184 1 0.15 0.95 0.55
1185 1 0.2 0.9 0.5
986 1 0.25 0.95 0.45
1186 1 0.25 0.95 0.55
1187 1 0.3 0.9 0.5
988 1 0.35 0.95 0.45
1188 1 0.35 0.95 0.55
1189 1 0.4 0.9 0.5
990 1 0.45 0.95 0.45
992 1 0.55 0.95 0.45
1190 1 0.45 0.95 0.55
1191 1 0.5 0.9 0.5
1192 1 0.55 0.95 0.55
994 1 0.65 0.95 0.45
1193 1 0.6 0.9 0.5
1194 1 0.65 0.95 0.55
996 1 0.75 0.95 0.45
1195 1 0.7 0.9 0.5
1196 1 0.75 0.95 0.55
998 1 0.85 0.95 0.45
1197 1 0.8 0.9 0.5
1198 1 0.85 0.95 0.55
1000 1 0.95 0.95 0.45
1199 1 0.9 0.9 0.5
1200 1 0.95 0.95 0.55
1201 1 0 0 0.6
1202 1 0.05 0.05 0.65
1203 1 0.1 0 0.6
1221 1 0 0.1 0.6
1223 1 0.1 0.1 0.6
1204 1 0.15 0.05 0.65
1205 1 0.2 0 0.6
1225 1 0.2 0.1 0.6
1206 1 0.25 0.05 0.65
1207 1 0.3 0 0.6
1227 1 0.3 0.1 0.6
1208 1 0.35 0.05 0.65
1209 1 0.4 0 0.6
1229 1 0.4 0.1 0.6
1210 1 0.45 0.05 0.65
1211 1 0.5 0 0.6
1212 1 0.55 0.05 0.65
1231 1 0.5 0.1 0.6
1213 1 0.6 0 0.6
1214 1 0.65 0.05 0.65
1233 1 0.6 0.1 0.6
1215 1 0.7 0 0.6
1216 1 0.75 0.05 0.65
1235 1 0.7 0.1 0.6
1217 1 0.8 0 0.6
1218 1 0.85 0.05 0.65
1237 1 0.8 0.1 0.6
1219 1 0.9 0 0.6
1220 1 0.95 0.05 0.65
1239 1 0.9 0.1 0.6
1222 1 0.05 0.15 0.65
1241 1 0 0.2 0.6
1243 1 0.1 0.2 0.6
1224 1 0.15 0.15 0.65
1245 1 0.2 0.2 0.6
1226 1 0.25 0.15 0.65
1247 1 0.3 0.2 0.6
1228 1 0.35 0.15 0.65
1249 1 0.4 0.2 0.6
1230 1 0.45 0.15 0.65
1232 1 0.55 0.15 0.65
1251 1 0.5 0.2 0.6
1234 1 0.65 0.15 0.65
1253 1 0.6 0.2 0.6
1236 1 0.75 0.15 0.65
1255 1 0.7 0.2 0.6
1238 1 0.85 0.15 0.65
1257 1 0.8 0.2 0.6
1240 1 0.95 0.15 0.65
1259 1 0.9 0.2 0.6
1242 1 0.05 0.25 0.65
1261 1 0 0.3 0.6
1263 1 0.1 0.3 0.6
1244 1 0.15 0.25 0.65
1265 1 0.2 0.3 0.6
1246 1 0.25 0.25 0.65
1267 1 0.3 0.3 0.6
1248 1 0.35 0.25 0.65
1269 1 0.4 0.3 0.6
1250 1 0.45 0.25 0.65
1252 1 0.55 0.25 0.65
1271 1 0.5 0.3 0.6
1254 1 0.65 0.25 0.65
1273 1 0.6 0.3 0.6
1256 1 0.75 0.25 0.65
1275 1 0.7 0.3 0.6
1258 1 0.85 0.25 0.65
1277 1 0.8 0.3 0.6
1260 1 0.95 0.25 0.65
1279 1 0.9 0.3 0.6
1262 1 0.05 0.35 0.65
1281 1 0 0.4 0.6
1283 1 0.1 0.4 0.6
1264 1 0.15 0.35 0.65
1285 1 0.2 0.4 0.6
1266 1 0.25 0.35 0.65
1287 1 0.3 0.4 0.6
1268 1 0.35 0.35 0.65
1289 1 0.4 0.4 0.6
1270 1 0.45 0.35 0.65
1272 1 0.55 0.35 0.65
1291 1 0.5 0.4 0.6
1274 1 0.65 0.35 0.65
1293 1 0.6 0.4 0.6
1276 1 0.75 0.35 0.65
1295 1 0.7 0.4 0.6
1278 1 0.85 0.35 0.65
1297 1 0.8 0.4 0.6
1280 1 0.95 0.35 0.65
1299 1 0.9 0.4 0.6
1282 1 0.05 0.45 0.65
1301 1 0 0.5 0.6
1302 1 0.05 0.55 0.65
1303 1 0.1 0.5 0.6
1284 1 0.15 0.45 0.65
1304 1 0.15 0.55 0.65
1305 1 0.2 0.5 0.6
1286 1 0.25 0.45 0.65
1306 1 0.25 0.55 0.65
1307 1 0.3 0.5 0.6
1288 1 0.35 0.45 0.65
1308 1 0.35 0.55 0.65
1309 1 0.4 0.5 0.6
1290 1 0.45 0.45 0.65
1292 1 0.55 0.45 0.65
1310 1 0.45 0.55 0.65
1311 1 0.5 0.5 0.6
1312 1 0.55 0.55 0.65
1294 1 0.65 0.45 0.65
1313 1 0.6 0.5 0.6
1314 1 0.65 0.55 0.65
1296 1 0.75 0.45 0.65
1315 1 0.7 0.5 0.6
1316 1 0.75 0.55 0.65
1298 1 0.85 0.45 0.65
1317 1 0.8 0.5 0.6
1318 1 0.85 0.55 0.65
1300 1 0.95 0.45 0.65
1319 1 0.9 0.5 0.6
1320 1 0.95 0.55 0.65
1321 1 0 0.6 0.6
1322 1 0.05 0.65 0.65
1323 1 0.1 0.6 0.6
1324 1 0.15 0.65 0.65
1325 1 0.2 0.6 0.6
1326 1 0.25 0.65 0.65
1327 1 0.3 0.6 0.6
1328 1 0.35 0.65 0.65
1329 1 0.4 0.6 0.6
1330 1 0.45 0.65 0.65
1331 1 0.5 0.6 0.6
1332 1 0.55 0.65 0.65
1333 1 0.6 0.6 0.6
1334 1 0.65 0.65 0.65
1335 1 0.7 0.6 0.6
1336 1 0.75 0.65 0.65
1337 1 0.8 0.6 0.6
1338 1 0.85 0.65 0.65
1339 1 0.9 0.6 0.6
1340 1 0.95 0.65 0.65
1341 1 0 0.7 0.6
1342 1 0.05 0.75 0.65
1343 1 0.1 0.7 0.6
1344 1 0.15 0.75 0.65
1345 1 0.2 0.7 0.6
1346 1 0.25 0.75 0.65
1347 1 0.3 0.7 0.6
1348 1 0.35 0.75 0.65
1349 1 0.4 0.7 0.6
1350 1 0.45 0.75 0.65
1351 1 0.5 0.7 0.6
1352 1 0.55 0.75 0.65
1353 1 0.6 0.7 0.6
1354 1 0.65 0.75 0.65
1355 1 0.7 0.7 0.6
1356 1 0.75 0.75 0.65
1357 1 0.8 0.7 0.6
1358 1 0.85 0.75 0.65
1359 1 0.9 0.7 0.6
1360 1 0.95 0.75 0.65
1361 1 0 0.8 0.6
1362 1 0.05 0.85 0.65
1363 1 0.1 0.8 0.6
1364 1 0.15 0.85 0.65
1365 1 0.2 0.8 0.6
1366 1 0.25 0.85 0.65
1367 1 0.3 0.8 0.6
1368 1 0.35 0.85 0.65
1369 1 0.4 0.8 0.6
1370 1 0.45 0.85 0.65
1371 1 0.5 0.8 0.6
1372 1 0.55 0.85 0.65
1373 1 0.6 0.8 0.6
1374 1 0.65 0.85 0.65
1375 1 0.7 0.8 0.6
1376 1 0.75 0.85 0.65
1377 1 0.8 0.8 0.6
1378 1 0.85 0.85 0.65
1379 1 0.9 0.8 0.6
1380 1 0.95 0.85 0.65
1381 1 0 0.9 0.6
1382 1 0.05 0.95 0.65
1383 1 0.1 0.9 0.6
1384 1 0.15 0.95 0.65
1385 1 0.2 0.9 0.6
1386 1 0.25 0.95 0.65
1387 1 0.3 0.9 0.6
1388 1 0.35 0.95 0.65
1389 1 0.4 0.9 0.6
1390 1 0.45 0.95 0.65
1391 1 0.5 0.9 0.6
1392 1 0.55 0.95 0.65
1393 1 0.6 0.9 0.6
1394 1 0.65 0.95 0.65
1395 1 0.7 0.9 0.6
1396 1 0.75 0.95 0.65
1397 1 0.8 0.9 0.6
1398 1 0.85 0.95 0.65
1399 1 0.9 0.9 0.6
1400 1 0.95 0.95 0.65
1401 1 0 0 0.7
1402 1 0.05 0.05 0.75
1403 1 0.1 0 0.7
1421 1 0 0.1 0.7
1423 1 0.1 0.1 0.7
1404 1 0.15 0.05 0.75
1405 1 0.2 0 0.7
1425 1 0.2 0.1 0.7
1406 1 0.25 0.05 0.75
1407 1 0.3 0 0.7
1427 1 0.3 0.1 0.7
1408 1 0.35 0.05 0.75
1409 1 0.4 0 0.7
1429 1 0.4 0.1 0.7
1410 1 0.45 0.05 0.75
1411 1 0.5 0 0.7
1412 1 0.55 0.05 0.75
1431 1 0.5 0.1 0.7
1413 1 0.6 0 0.7
1414 1 0.65 0.05 0.75
1433 1 0.6 0.1 0.7
1415 1 0.7 0 0.7
1416 1 0.75 0.05 0.75
1435 1 0.7 0.1 0.7
1417 1 0.8 0 0.7
1418 1 0.85 0.05 0.75
1437 1 0.8 0.1 0.7
1419 1 0.9 0 0.7
1420 1 0.95 0.05 0.75
1439 1 0.9 0.1 0.7
1422 1 0.05 0.15 0.75
1441 1 0 0.2 0.7
1443 1 0.1 0.2 0.7
1424 1 0.15 0.15 0.75
1445 1 0.2 0.2 0.7
1426 1 0.25 0.15 0.75
1447 1 0.3 0.2 0.7
1428 1 0.35 0.15 0.75
1449 1 0.4 0.2 0.7
1430 1 0.45 0.15 0.75
1432 1 0.55 0.15 0.75
1451 1 0.5 0.2 0.7
1434 1 0.65 0.15 0.75
1453 1 0.6 0.2 0.7
1436 1 0.75 0.15 0.75
1455 1 0.7 0.2 0.7
1438 1 0.85 0.15 0.75
1457 1 0.8 0.2 0.7
1440 1 0.95 0.15 0.75
1459 1 0.9 0.2 0.7
1442 1 0.05 0.25 0.75
1461 1 0 0.3 0.7
1463 1 0.1 0.3 0.7
1444 1 0.15 0.25 0.75
1465 1 0.2 0.3 0.7
1446 1 0.25 0.25 0.75
1467 1 0.3 0.3 0.7
1448 1 0.35 0.25 0.75
1469 1 0.4 0.3 0.7
1450 1 0.45 0.25 0.75
1452 1 0.55 0.25 0.75
1471 1 0.5 0.3 0.7
1454 1 0.65 0.25 0.75
1473 1 0.6 0.3 0.7
1456 1 0.75 0.25 0.75
1475 1 0.7 0.3 0.7
1458 1 0.85 0.25 0.75
1477 1 0.8 0.3 0.7
1460 1 0.95 0.25 0.75
1479 1 0.9 0.3 0.7
1462 1 0.05 0.35 0.75
1481 1 0 0.4 0.7
1483 1 0.1 0.4 0.7
1464 1 0.15 0.35 0.75
1485 1 0.2 0.4 0.7
1466 1 0.25 0.35 0.75
1487 1 0.3 0.4 0.7
1468 1 0.35 0.35 0.75
1489 1 0.4 0.4 0.7
1470 1 0.45 0.35 0.75
1472 1 0.55 0.35 0.75
1491 1 0.5 0.4 0.7
1474 1 0.65 0.35 0.75
1493 1 0.6 0.4 0.7
1476 1 0.75 0.35 0.75
1495 1 0.7 0.4 0.7
1478 1 0.85 0.35 0.75
1497 1 0.8 0.4 0.7
1480 1 0.95 0.35 0.75
1499 1 0.9 0.4 0.7
1482 1 0.05 0.45 0.75
1501 1 0 0.5 0.7
1502 1 0.05 0.55 0.75
1503 1 0.1 0.5 0.7
1484 1 0.15 0.45 0.75
1504 1 0.15 0.55 0.75
1505 1 0.2 0.5 0.7
1486 1 0.25 0.45 0.75
1506 1 0.25 0.55 0.75
1507 1 0.3 0.5 0.7
1488 1 0.35 0.45 0.75
1508 1 0.35 0.55 0.75
1509 1 0.4 0.5 0.7
1490 1 0.45 0.45 0.75
1492 1 0.55 0.45 0.75
1510 1 0.45 0.55 0.75
1511 1 0.5 0.5 0.7
1512 1 0.55 0.55 0.75
1494 1 0.65 0.45 0.75
1513 1 0.6 0.5 0.7
1514 1 0.65 0.55 0.75
1496 1 0.75 0.45 0.75
1515 1 0.7 0.5 0.7
1516 1 0.75 0.55 0.75
1498 1 0.85 0.45 0.75
1517 1 0.8 0.5 0.7
1518 1 0.85 0.55 0.75
1500 1 0.95 0.45 0.75
1519 1 0.9 0.5 0.7
1520 1 0.95 0.55 0.75
1521 1 0 0.6 0.7
1522 1 0.05 0.65 0.75
1523 1 0.1 0.6 0.7
1524 1 0.15 0.65 0.75
1525 1 0.2 0.6 0.7
1526 1 0.25 0.65 0.75
1527 1 0.3 0.6 0.7
1528 1 0.35 0.65 0.75
1529 1 0.4 0.6 0.7
1530 1 0.45 0.65 0.75
1531 1 0.5 0.6 0.7