LAMMPS (29 Sep 2021 - Update 2)
OMP_NUM_THREADS environment is not set. Defaulting to 1 thread. (src/comm.cpp:98)
  using 1 OpenMP thread(s) per MPI task
#============Initialization=================
units 			metal
atom_style 		atomic
boundary 		p p p

############################################
#              CLI Variables               #
############################################
variable 		seed index 625000          #
variable 		N index 18                 #
variable 		iter index 1000000         #
variable 		iterther index 100000      #
variable 		iexport index 1000         #
variable 		tempchauf index 3000       #
variable 		Tdamp index 0.001          #
variable 		timestep index 0.0001      #
variable 		box_size index 30		   #
############################################
############################################

#=========Simulation box definition=========
lattice 		sc 1.0
Lattice spacing in x,y,z = 1.0000000 1.0000000 1.0000000
region 			bigbox block 0 ${box_size} 0 ${box_size} 0 ${box_size}
region 			bigbox block 0 30 0 ${box_size} 0 ${box_size}
region 			bigbox block 0 30 0 30 0 ${box_size}
region 			bigbox block 0 30 0 30 0 30
create_box 		1 bigbox
Created orthogonal box = (0.0000000 0.0000000 0.0000000) to (30.000000 30.000000 30.000000)
  1 by 1 by 1 MPI processor grid

#==================Atoms====================
region 			safezone block 6 9 6 9 6 9 units box
create_atoms 	1 random ${N} ${seed} safezone
create_atoms 	1 random 18 ${seed} safezone
create_atoms 	1 random 18 625000 safezone
Created 18 atoms
  using lattice units in orthogonal box = (0.0000000 0.0000000 0.0000000) to (30.000000 30.000000 30.000000)
  create_atoms CPU = 0.005 seconds
mass 			* 12.01


#==========Velocity initialization==========
velocity 		all create 0.0000001 1563967 rot yes dist gaussian

#======Pair style for atom interactions=============
pair_style 		rebo
pair_coeff 		* * CH.rebo C
Reading rebo potential file CH.rebo with DATE: 2018-7-3

#==============Neighbor selection===================
neighbor 		0.3 bin
neigh_modify 	every 1 delay 0 check yes


#=====================Timestep======================
timestep 		${timestep}
timestep 		0.0001

#===============Define dump command=================
dump 			1 all cfg 100000 ./dump/dump.tensile_*.cfg mass type xs ys zs vx vy vz id

#========System temperature printing info===========
thermo_style 	custom step temp etotal epair pe ke
thermo 			${iexport}	# 1'000'000
thermo 			1000	


#====================CRC Cycle======================

#=============Condensation et chauffe===============
fix 			1 all nve
fix 			2 all temp/berendsen 0.0 ${tempchauf} ${Tdamp}
fix 			2 all temp/berendsen 0.0 3000 ${Tdamp}
fix 			2 all temp/berendsen 0.0 3000 0.001
fix             3 all momentum 1 linear 1 1 1 angular rescale

run 			${iter}
run 			1000000
Neighbor list info ...
  update every 1 steps, delay 0 steps, check yes
  max neighbors/atom: 2000, page size: 100000
  master list distance cutoff = 6.3
  ghost atom cutoff = 6.3
  binsize = 3.15, bins = 10 10 10
  1 neighbor lists, perpetual/occasional/extra = 1 0 0
  (1) pair rebo, perpetual
      attributes: full, newton on, ghost
      pair build: full/bin/ghost
      stencil: full/ghost/bin/3d
      bin: standard
Per MPI rank memory allocation (min/avg/max) = 5.139 | 5.139 | 5.139 Mbytes
Step Temp TotEng E_pair PotEng KinEng 
       0        1e-07    9823.5674    9823.5674    9823.5674 2.1974225e-10 
    1000    14.324034    -64.32367   -64.355146   -64.355146  0.031475954 
    2000     33.10257   -69.693831   -69.766571   -69.766571   0.07274033 
    3000     10.90649   -71.701852   -71.725818   -71.725818  0.023966165 
    4000    13.233625   -72.039243   -72.068323   -72.068323  0.029079866 
    5000    233.66133   -75.655021   -76.168474   -76.168474   0.51345266 
    6000    19.499867   -78.522615   -78.565465   -78.565465  0.042849446 
    7000    21.872761   -78.755619   -78.803683   -78.803683  0.048063697 
    8000     24.91145   -78.970887   -79.025628   -79.025628  0.054740979 
    9000    27.818856   -79.193456   -79.254586   -79.254586  0.061129779 
   10000    30.662595     -79.3743   -79.441678   -79.441678  0.067378675 
   11000    33.533136   -79.528991   -79.602677   -79.602677  0.073686466 
   12000    36.255199   -79.634752    -79.71442    -79.71442   0.07966799 
   13000    39.035562   -79.668965   -79.754742   -79.754742  0.085777621 
   14000    41.859595    -79.65808   -79.750063   -79.750063  0.091983215 
   15000    44.507207   -79.576445   -79.674246   -79.674246  0.097801137 
   16000    47.206244   -79.422545   -79.526277   -79.526277   0.10373206 
   17000    50.440974   -79.267312   -79.378153   -79.378153   0.11084013 
   18000    54.650001   -79.256955   -79.377044   -79.377044   0.12008914 
   19000    55.934997   -80.335025   -80.457938   -80.457938   0.12291282 
   20000    58.261186   -80.537976   -80.666001   -80.666001   0.12802444 
   21000    65.185698   -80.604372   -80.747613   -80.747613   0.14324052 
   22000    64.905482   -80.529337   -80.671961   -80.671961   0.14262476 
   23000    68.992017   -80.461556   -80.613161   -80.613161   0.15160461 
   24000    71.924351    -80.37092   -80.528968   -80.528968   0.15804818 
   25000    73.727611   -80.436219    -80.59823    -80.59823   0.16201071 
   26000    77.352169   -80.496565    -80.66654    -80.66654   0.16997539 
   27000    78.651825   -80.422593   -80.595424   -80.595424   0.17283129 
   28000    84.157417   -80.391347   -80.576276   -80.576276    0.1849294 
   29000    86.873114   -80.468854   -80.659751   -80.659751   0.19089693 
   30000    91.011497   -80.388257   -80.588247   -80.588247   0.19999071 
   31000    93.037315   -80.301583   -80.506025   -80.506025   0.20444229 
   32000    96.506902   -80.295842   -80.507908   -80.507908   0.21206644 
   33000    100.02555    -80.41074   -80.630538   -80.630538   0.21979839 
   34000    101.81358   -80.467572   -80.691299   -80.691299   0.22372745 
   35000    103.15489   -80.378569   -80.605244   -80.605244   0.22667487 
   36000    104.19786   -80.099227   -80.328194   -80.328194   0.22896671 
   37000    109.63113   -80.046666   -80.287572   -80.287572   0.24090591 
   38000     113.0773   -80.325445   -80.573924   -80.573924   0.24847859 
   39000    118.17343   -80.441327   -80.701004   -80.701004   0.25967695 
   40000    121.69143   -80.315788   -80.583195   -80.583195   0.26740748 
   41000     122.4267   -80.052522   -80.321545   -80.321545   0.26902318 
   42000    127.07853   -79.859568   -80.138814   -80.138814   0.27924521 
   43000    127.35933    -80.19679   -80.476652   -80.476652   0.27986225 
   44000    131.54703    -80.39426   -80.683324   -80.683324   0.28906441 
   45000    134.87385   -80.281282   -80.577657   -80.577657   0.29637482 
   46000    137.35817    -80.14852   -80.450354   -80.450354   0.30183392 
   47000    139.70882   -80.118039   -80.425038   -80.425038   0.30699929 
   48000    142.09982   -80.132314   -80.444568   -80.444568   0.31225333 
   49000    145.99452   -80.238636   -80.559448   -80.559448   0.32081164 
   50000    147.84667   -80.211841   -80.536722   -80.536722    0.3248816 
   51000    153.20341   -80.032104   -80.368757   -80.368757   0.33665263 
   52000    158.03766   -80.206839   -80.554114   -80.554114    0.3472755 
   53000    159.06774    -80.21664    -80.56618    -80.56618   0.34953903 
   54000    158.49177   -80.087111   -80.435384   -80.435384   0.34827337 
   55000    161.39582   -79.997191   -80.351846   -80.351846   0.35465481 
   56000    170.84597   -80.124037   -80.499458   -80.499458   0.37542078 
   57000    168.10853   -80.171242   -80.540647   -80.540647   0.36940545 
   58000    175.23079   -79.994297   -80.379353   -80.379353   0.38505607 
   59000    182.73401   -79.530719   -79.932263   -79.932263   0.40154381 
   60000    183.22503   -79.789106   -80.191729   -80.191729    0.4026228 
   61000    184.36689   -80.104249    -80.50938    -80.50938   0.40513195 
   62000    184.02399   -80.149207   -80.553586   -80.553586   0.40437845 
   63000    189.74907   -79.956587   -80.373546   -80.373546   0.41695887 
   64000    190.65317   -79.942208   -80.361154   -80.361154   0.41894555 
   65000     197.4843   -79.903681   -80.337637   -80.337637   0.43395643 
   66000    198.74806   -79.991987   -80.428721   -80.428721   0.43673345 
   67000    201.89991   -79.868621    -80.31228    -80.31228   0.44365941 
   68000    202.20391   -79.984979   -80.429307   -80.429307   0.44432742 
   69000    208.94694   -80.038826   -80.497971   -80.497971   0.45914471 
   70000    210.79119   -79.863628   -80.326825   -80.326825   0.46319729 
   71000    213.60318   -79.788358   -80.257734   -80.257734   0.46937642 
   72000    216.85013   -79.659044   -80.135556   -80.135556   0.47651135 
   73000    222.14942   -79.884706   -80.372862   -80.372862   0.48815613 
   74000    220.58947   -80.072177   -80.556906   -80.556906   0.48472825 
   75000    223.84863   -79.802894   -80.294784   -80.294784      0.49189 
   76000    229.92448   -79.481458     -79.9867     -79.9867   0.50524122 
   77000    228.84829   -79.311557   -79.814434   -79.814434   0.50287637 
   78000    232.58756   -79.693196   -80.204289   -80.204289   0.51109314 
   79000    235.16937   -79.980907   -80.497673   -80.497673   0.51676647 
   80000    237.62211    -80.05918   -80.581336   -80.581336   0.52215616 
   81000    242.76862    -79.66094   -80.194405   -80.194405   0.53346522 
   82000    246.30819   -79.559388   -80.100632   -80.100632   0.54124314 
   83000    245.44258   -79.879802   -80.419143   -80.419143   0.53934103 
   84000    248.52863   -79.863931   -80.410054   -80.410054   0.54612239 
   85000    265.72497   -79.476337   -80.060247   -80.060247   0.58391002 
   86000    256.30436   -79.538667   -80.101876   -80.101876   0.56320895 
   87000    258.51481   -79.514242   -80.082309   -80.082309   0.56806625 
   88000    268.59336   -79.801283   -80.391496   -80.391496   0.59021308 
   89000    271.19232   -79.847896   -80.443821   -80.443821   0.59592409 
   90000    257.88071   -79.353441   -79.920114   -79.920114   0.56667286 
   91000    279.54388   -79.023943   -79.638219   -79.638219     0.614276 
   92000    274.21003    -79.60146   -80.204015   -80.204015   0.60255528 
   93000    280.43061     -79.9958   -80.612024   -80.612024   0.61622451 
   94000    275.90477   -79.720923   -80.327202   -80.327202   0.60627935 
   95000    276.28699   -78.815284   -79.422403   -79.422403   0.60711924 
   96000    290.58275   -79.242002   -79.880535   -79.880535   0.63853307 
   97000    290.67107   -79.927797   -80.566524   -80.566524   0.63872714 
   98000    299.33234   -79.893209   -80.550969   -80.550969    0.6577596 
   99000    294.41003   -79.574751   -80.221694   -80.221694   0.64694322 
  100000    299.14259   -79.703614   -80.360956   -80.360956   0.65734265 
  101000    302.70858   -79.670885   -80.336063   -80.336063   0.66517864 
  102000    313.42227    -79.78574   -80.474461   -80.474461   0.68872114 
  103000      307.514   -79.206001   -79.881739   -79.881739   0.67573817 
  104000    315.84315   -79.628476   -80.322517   -80.322517   0.69404084 
  105000      309.981   -79.861775   -80.542934   -80.542934    0.6811592 
  106000    324.14184   -79.280312   -79.992589   -79.992589   0.71227656 
  107000    316.01145   -79.251144   -79.945555   -79.945555   0.69441067 
  108000    338.50754   -79.064836    -79.80868    -79.80868   0.74384408 
  109000    336.86682   -80.959405   -81.699644   -81.699644   0.74023872 
  110000     335.6139   -81.324276   -82.061761   -82.061761   0.73748553 
  111000    323.72689   -81.609446    -82.32081    -82.32081   0.71136473 
  112000    330.96378    -81.47962   -82.206887   -82.206887   0.72726723 
  113000     333.3964    -81.13838   -81.870992   -81.870992   0.73261273 
  114000    327.46759   -80.396335   -81.115919   -81.115919   0.71958463 
  115000    347.51896   -80.909573   -81.673219   -81.673219   0.76364598 
  116000    347.73061   -81.506367   -82.270478   -82.270478   0.76411104 
  117000    353.70136   -81.495163   -82.272394   -82.272394   0.77723131 
  118000    358.05423   -81.196897   -81.983693   -81.983693   0.78679642 
  119000    352.10018   -81.079049   -81.852762   -81.852762   0.77371285 
  120000    368.61009   -80.636995   -81.446988   -81.446988    0.8099921 
  121000    371.76322   -80.917055   -81.733976   -81.733976   0.81692085 
  122000    359.37373   -80.715556   -81.505252   -81.505252    0.7896959 
  123000    357.51754   -81.214267   -81.999884   -81.999884   0.78561706 
  124000    383.14703   -81.345143   -82.187079   -82.187079   0.84193588 
  125000    363.53141     -81.3667   -82.165532   -82.165532   0.79883208 
  126000    379.74556   -81.372984   -82.207446   -82.207446   0.83446143 
  127000    379.01439   -80.872052   -81.704906   -81.704906   0.83285474 
  128000    370.23741   -80.894163   -81.707731   -81.707731     0.813568 
  129000    386.83958   -80.825713   -81.675763   -81.675763   0.85004998 
  130000    383.60886   -81.275583   -82.118534   -82.118534   0.84295073 
  131000    391.14618   -81.403702   -82.263215   -82.263215   0.85951339 
  132000    392.21748   -80.918699   -81.780567   -81.780567    0.8618675 
  133000    405.21299   -80.856294   -81.746719   -81.746719   0.89042414 
  134000    403.88823   -80.794716   -81.682229   -81.682229   0.88751307 
  135000    417.12966   -80.526497   -81.443107   -81.443107   0.91661008 
  136000    410.29121   -81.079794   -81.981377   -81.981377   0.90158312 
  137000    414.35515    -81.29905   -82.209563   -82.209563   0.91051332 
  138000     416.3916   -81.124133   -82.039122   -82.039122   0.91498825 
  139000    415.92476    -80.97508   -81.889042   -81.889042    0.9139624 
  140000    425.02224   -80.584509   -81.518462   -81.518462   0.93395342 
  141000    423.04521   -81.227111    -82.15672    -82.15672   0.92960906 
  142000    430.28975   -81.355315   -82.300844   -82.300844   0.94552836 
  143000    433.17685   -80.872016   -81.823888   -81.823888   0.95187254 
  144000    442.23868   -80.723627   -81.695412   -81.695412    0.9717852 
  145000    431.36987    -81.03746   -81.985362   -81.985362   0.94790185 
  146000     426.0611   -80.860219   -81.796455   -81.796455   0.93623624 
  147000    437.29083   -81.288479   -82.249392   -82.249392   0.96091268 
  148000    444.97185    -80.98393   -81.961721   -81.961721   0.97779114 
  149000    450.65144   -80.612306   -81.602578   -81.602578   0.99027159 
  150000    452.10664   -81.189124   -82.182593   -82.182593    0.9934693 
  151000    444.76005   -81.246623   -82.223948   -82.223948   0.97732573 
  152000    451.89175   -80.459964   -81.452961   -81.452961   0.99299708 
  153000    463.78172   -80.432483   -81.451607   -81.451607    1.0191244 
  154000    454.71136   -80.559667    -81.55886    -81.55886   0.99919296 
  155000    464.08535    -80.96388   -81.983672   -81.983672    1.0197916 
  156000    466.78443   -80.885792   -81.911514   -81.911514    1.0257226 
  157000    462.25066   -80.865774   -81.881534   -81.881534      1.01576 
  158000    470.73435   -80.005811   -81.040213   -81.040213    1.0344022 
  159000    480.67288   -80.689076   -81.745317   -81.745317    1.0562414 
  160000    491.47982   -80.925605   -82.005594   -82.005594    1.0799888 
  161000    480.98841   -80.604454   -81.661389   -81.661389    1.0569347 
  162000    482.15634   -80.761176   -81.820677   -81.820677    1.0595012 
  163000    480.90997   -80.829137   -81.885899   -81.885899    1.0567624 
  164000    486.06075   -80.469499    -81.53758    -81.53758    1.0680808 
  165000    503.65145   -80.483773   -81.590509   -81.590509     1.106735 
  166000    492.00589   -80.744375   -81.825519   -81.825519    1.0811448 
  167000    487.10715   -80.811785   -81.882165   -81.882165    1.0703802 
  168000    513.67401   -80.428619   -81.557378   -81.557378    1.1287588 
  169000    521.47447   -80.788926   -81.934826   -81.934826    1.1458997 
  170000    523.07647   -80.737654   -81.887074   -81.887074      1.14942 
  171000    519.59609   -80.125274   -81.267046   -81.267046    1.1417721 
  172000    529.61355   -80.333254   -81.497038   -81.497038    1.1637847 
  173000    525.39811   -80.946505   -82.101027   -82.101027    1.1545216 
  174000    525.67474   -80.723882   -81.879012   -81.879012    1.1551295 
  175000    540.25901   -80.635124   -81.822302   -81.822302    1.1871773 
  176000    527.14827    -80.92091   -82.079277   -82.079277    1.1583675 
  177000    518.96513   -80.456748   -81.597134   -81.597134    1.1403856 
  178000    555.02508   -79.874487   -81.094111   -81.094111    1.2196246 
  179000    547.45299     -81.0713   -82.274285   -82.274285    1.2029855 
  180000    555.25536   -80.613868   -81.833999   -81.833999    1.2201306 
  181000    524.52283   -80.352323   -81.504921   -81.504921    1.1525983 
  182000    543.64064   -80.897218   -82.091826   -82.091826    1.1946082 
  183000    564.81151    -80.25553    -81.49666    -81.49666    1.2411295 
  184000    563.71509   -80.051869   -81.290589   -81.290589    1.2387202 
  185000    553.15022   -80.909901   -82.125406   -82.125406    1.2155047 
  186000    547.13335   -79.962662   -81.164945   -81.164945    1.2022831 
  187000    567.86776   -80.661429   -81.909274   -81.909274    1.2478454 
  188000    552.71565   -80.496149   -81.710699   -81.710699    1.2145498 
  189000    582.67106   -80.099644   -81.380019   -81.380019    1.2803745 
  190000    574.62213    -80.52974   -81.792428   -81.792428    1.2626876 
  191000    558.90347   -79.861127   -81.089274   -81.089274     1.228147 
  192000    595.01614   -80.317709   -81.625211   -81.625211    1.3075018 
  193000      589.833   -80.736108    -82.03222    -82.03222    1.2961123 
  194000     571.0155   -80.509504   -81.764266   -81.764266    1.2547623 
  195000    561.07278   -79.698389   -80.931303   -80.931303    1.2329139 
  196000    582.42297    -80.38519    -81.66502    -81.66502    1.2798293 
  197000    577.79488   -80.663666   -81.933325   -81.933325    1.2696594 
  198000    593.21307   -80.176099   -81.479639   -81.479639    1.3035397 
  199000    612.58245   -80.424142   -81.770244   -81.770244    1.3461024 
  200000    610.76475    -80.35426   -81.696368   -81.696368    1.3421082 
  201000     607.8598   -80.447049   -81.782773   -81.782773    1.3357248 
  202000    640.59716    -80.37305   -81.780712   -81.780712    1.4076626 
  203000    618.57442   -80.123258   -81.482527   -81.482527    1.3592693 
  204000    612.51314   -80.529191   -81.875141   -81.875141    1.3459501 
  205000    634.18896   -80.553065   -81.946647   -81.946647    1.3935811 
  206000    608.67749   -80.418876   -81.756398   -81.756398    1.3375216 
  207000    618.51849   -80.245333    -81.60448    -81.60448    1.3591464 
  208000     635.6063   -80.556614    -81.95331    -81.95331    1.3966956 
  209000    646.18411   -80.030925   -81.450865   -81.450865    1.4199395 
  210000    639.97071   -80.137749   -81.544035   -81.544035     1.406286 
  211000    642.51999   -80.321066   -81.732954   -81.732954    1.4118879 
  212000    623.14121   -80.594529   -81.963834   -81.963834    1.3693045 
  213000    625.21585   -80.294116   -81.667979   -81.667979    1.3738633 
  214000    654.19516   -80.066902   -81.504445   -81.504445    1.4375431 
  215000    660.47086   -79.992533   -81.443867   -81.443867    1.4513335 
  216000    652.86301   -80.435967   -81.870583   -81.870583    1.4346158 
  217000    681.05856   -80.385158   -81.881731   -81.881731    1.4965734 
  218000    638.76306   -80.229879   -81.633512   -81.633512    1.4036323 
  219000    672.15097   -80.162225   -81.639225   -81.639225    1.4769996 
  220000     648.5988    -80.56979   -81.995036   -81.995036    1.4252456 
  221000    665.74319   -80.341071    -81.80399    -81.80399     1.462919 
  222000    670.42175    -80.40853    -81.88173    -81.88173    1.4731998 
  223000    685.98883   -80.453157   -81.960565   -81.960565    1.5074073 
  224000    660.18322   -80.078989   -81.529691   -81.529691    1.4507014 
  225000    666.02215   -80.178863   -81.642395   -81.642395     1.463532 
  226000    673.47547   -80.393654   -81.873564   -81.873564    1.4799101 
  227000    681.24095   -80.572356   -82.069331   -82.069331    1.4969742 
  228000     690.6146   -80.228676   -81.746248   -81.746248     1.517572 
  229000    685.14823   -80.430906   -81.936466   -81.936466    1.5055601 
  230000    702.72934   -80.283985   -81.828179   -81.828179    1.5441932 
  231000    678.06921   -80.376976   -81.866981   -81.866981    1.4900045 
  232000    708.71651   -80.545866   -82.103215   -82.103215    1.5573496 
  233000    682.12861   -80.636084   -82.135009   -82.135009    1.4989247 
  234000    686.49784   -80.031885   -81.540411   -81.540411    1.5085258 
  235000    697.90596   -80.512508   -82.046103   -82.046103    1.5335942 
  236000    710.13873   -80.573342   -82.133816   -82.133816    1.5604748 
  237000    698.24161   -80.364268   -81.898599   -81.898599    1.5343318 
  238000    703.82914   -80.377709   -81.924318   -81.924318      1.54661 
  239000    733.39145   -80.411384   -82.022955   -82.022955    1.6115709 
  240000    733.29442   -80.282012    -81.89337    -81.89337    1.6113576 
  241000    727.25435   -80.598137   -82.196222   -82.196222     1.598085 
  242000    718.38279   -80.379965   -81.958555   -81.958555    1.5785905 
  243000    727.12371   -80.285936   -81.883734   -81.883734     1.597798 
  244000    728.23961    -80.44094    -82.04119    -82.04119    1.6002501 
  245000    738.99909   -80.449427    -82.07332    -82.07332    1.6238932 
  246000    739.78283   -80.572157   -82.197773   -82.197773    1.6256154 
  247000    739.04325   -80.348232   -81.972222   -81.972222    1.6239902 
  248000    724.01074   -80.350436   -81.941394   -81.941394    1.5909575 
  249000     742.2288   -80.797242   -82.428232   -82.428232    1.6309902 
  250000    747.64112   -80.575275   -82.218158   -82.218158    1.6428834 
  251000    759.58546   -80.444864   -82.113994   -82.113994    1.6691302 
  252000    755.60698   -80.727523   -82.387911   -82.387911    1.6603878 
  253000    763.90165   -80.542673   -82.221288   -82.221288    1.6786146 
  254000    759.04705   -80.564048   -82.231995   -82.231995     1.667947 
  255000    764.35931   -80.621206   -82.300826   -82.300826    1.6796203 
  256000    765.96456   -80.643227   -82.326374   -82.326374    1.6831477 
  257000    773.09183   -80.494825   -82.193635   -82.193635    1.6988093 
  258000    775.72342   -80.149544   -81.854136   -81.854136    1.7045921 
  259000    775.29714    -80.48614   -82.189796   -82.189796    1.7036554 
  260000    770.62617   -80.339758   -82.033149   -82.033149    1.6933912 
  261000    783.47119   -80.561439   -82.283056   -82.283056    1.7216172 
  262000    790.73298   -80.380464   -82.118038   -82.118038    1.7375744 
  263000     775.5672   -80.244646   -81.948894   -81.948894    1.7042488 
  264000    776.71207   -80.159017   -81.865782   -81.865782    1.7067646 
  265000    798.03414   -80.162813   -81.916431   -81.916431    1.7536182 
  266000    800.76147   -80.391444   -82.151055   -82.151055    1.7596112 
  267000    794.43901   -80.477833   -82.223551   -82.223551    1.7457181 
  268000    806.91349   -80.160215   -81.933345   -81.933345    1.7731298 
  269000    797.07564    -80.29663   -82.048142   -82.048142    1.7515119 
  270000    816.52659   -80.376337   -82.170591   -82.170591    1.7942539 
  271000     803.1554   -80.391102   -82.155973   -82.155973    1.7648717 
  272000    805.62777   -79.998649   -81.768954   -81.768954    1.7703046 
  273000    828.01218   -79.975573   -81.795065   -81.795065    1.8194926 
  274000    826.23036   -80.508439   -82.324016   -82.324016    1.8155772 
  275000    831.39481   -80.435349   -82.262274   -82.262274    1.8269256 
  276000    817.25661   -80.047614   -81.843472   -81.843472     1.795858 
  277000    832.35065   -80.147367   -81.976393   -81.976393     1.829026 
  278000    832.75195   -80.296906   -82.126814   -82.126814    1.8299078 
  279000    831.88283   -80.260296   -82.088294   -82.088294     1.827998 
  280000    844.73325   -80.266615   -82.122851   -82.122851    1.8562358 
  281000    849.98453   -80.213131   -82.080906   -82.080906    1.8677751 
  282000     831.0093   -80.117335   -81.943414   -81.943414    1.8260785 
  283000    852.08623   -80.323502   -82.195895   -82.195895    1.8723934 
  284000    859.18296   -80.399118   -82.287106   -82.287106    1.8879879 
  285000     847.7054   -79.971913    -81.83468    -81.83468    1.8627669 
  286000    859.17095   -80.032762   -81.920724   -81.920724    1.8879615 
  287000    867.28752   -80.417302   -82.323099   -82.323099    1.9057971 
  288000    865.39592   -80.403217   -82.304858   -82.304858    1.9016404 
  289000     866.3604   -80.056934   -81.960694   -81.960694    1.9037598 
  290000    871.67523   -80.223625   -82.139063   -82.139063    1.9154387 
  291000    871.06382   -80.216923   -82.131018   -82.131018    1.9140952 
  292000    875.04155   -80.311863   -82.234699   -82.234699     1.922836 
  293000    891.29851   -80.194949   -82.153509   -82.153509    1.9585594 
  294000    878.50382   -80.228949   -82.159393   -82.159393     1.930444 
  295000    882.01153   -80.044965   -81.983117   -81.983117     1.938152 
  296000    891.78063   -80.430595   -82.390214   -82.390214    1.9596188 
  297000    888.95345   -80.459339   -82.412745   -82.412745    1.9534063 
  298000    886.85398    -80.09366   -82.042453   -82.042453    1.9487929 
  299000    901.20723   -80.026288   -82.006621   -82.006621     1.980333 
  300000    908.45247   -80.171634   -82.167888   -82.167888    1.9962539 
  301000    901.01966    -80.31816   -82.298081   -82.298081    1.9799209 
  302000    911.17515   -80.091188   -82.093425   -82.093425    2.0022367 
  303000    892.02557    -80.06924   -82.029397   -82.029397     1.960157 
  304000      913.932   -80.141044   -82.149338   -82.149338    2.0082947 
  305000    920.30608   -80.262411   -82.284712   -82.284712    2.0223013 
  306000    910.39381   -80.197947   -82.198467   -82.198467    2.0005198 
  307000    924.50626   -80.135158   -82.166689   -82.166689    2.0315308 
  308000    938.79116   -80.273847   -82.336768   -82.336768    2.0629208 
  309000    927.11184   -80.318528   -82.355784   -82.355784    2.0372564 
  310000    922.16276   -80.269846   -82.296228   -82.296228    2.0263812 
  311000    941.29467   -80.031005   -82.099428   -82.099428    2.0684221 
  312000    944.81776   -80.301869   -82.378032   -82.378032    2.0761638 
  313000    935.78391   -80.327688   -82.384001   -82.384001    2.0563126 
  314000     945.5279   -80.289629   -82.367353   -82.367353    2.0777243 
  315000    951.39523   -80.225715   -82.316333   -82.316333    2.0906173 
  316000    941.52485   -80.204455   -82.273383   -82.273383    2.0689279 
  317000     940.9769   -80.132724   -82.200448   -82.200448    2.0677238 
  318000    963.08111   -80.190635   -82.306931   -82.306931    2.1162961 
  319000    964.91398   -80.284895   -82.405218   -82.405218    2.1203236 
  320000    954.05597   -80.132378   -82.228842   -82.228842     2.096464 
  321000    961.24529   -79.938351   -82.050613   -82.050613     2.112262 
  322000     977.0806    -80.28679   -82.433849   -82.433849    2.1470589 
  323000    971.46123   -80.320164   -82.454875   -82.454875    2.1347107 
  324000    971.51943   -80.120883   -82.255721   -82.255721    2.1348386 
  325000    971.64616   -80.106993    -82.24211    -82.24211    2.1351171 
  326000    972.83679   -80.224075   -82.361808   -82.361808    2.1377334 
  327000    973.50622   -80.243727   -82.382932   -82.382932    2.1392044 
  328000    982.48267   -80.170544   -82.329473   -82.329473    2.1589295 
  329000    984.37023   -79.984534   -82.147611   -82.147611    2.1630773 
  330000    991.66772    -80.25185   -82.430963   -82.430963    2.1791129 
  331000    989.43472   -80.184972   -82.359178   -82.359178    2.1742061 
  332000    995.04837   -80.262183   -82.448725   -82.448725    2.1865416 
  333000     993.4772   -80.277219   -82.460308   -82.460308    2.1830891 
  334000    994.42441   -80.123747   -82.308918   -82.308918    2.1851705 
  335000    1008.3759    -80.21852   -82.434348   -82.434348    2.2158278 
  336000    1007.2819   -79.996949   -82.210373   -82.210373    2.2134239 
  337000     1014.545   -80.194663   -82.424047   -82.424047     2.229384 
  338000    1015.1557   -79.968573   -82.199299   -82.199299     2.230726 
  339000    1020.9536   -80.050915   -82.294382   -82.294382    2.2434665 
  340000    1012.7551   -80.082564   -82.308015   -82.308015    2.2254508 
  341000    1018.9031   -79.959027   -82.197987   -82.197987    2.2389605 
  342000    1028.8436   -80.154673   -82.415477   -82.415477    2.2608039 
  343000    1028.0456   -80.030103   -82.289154   -82.289154    2.2590504 
  344000     1023.885   -80.016992   -82.266899   -82.266899    2.2499078 
  345000    1037.3319    -80.05382   -82.333276   -82.333276    2.2794563 
  346000    1042.5469   -80.016916   -82.307832   -82.307832    2.2909161 
  347000    1036.0539   -80.081667   -82.358315   -82.358315    2.2766482 
  348000    1046.0746   -80.024798   -82.323466   -82.323466    2.2986679 
  349000    1056.6663   -80.089295   -82.411238   -82.411238    2.3219422 
  350000    1059.9248   -79.999732   -82.328834   -82.328834    2.3291027 
  351000    1048.6244     -80.0521   -82.356371   -82.356371    2.3042707 
  352000    1061.0934   -80.062854   -82.394525   -82.394525    2.3316705 
  353000    1059.5582   -80.023843    -82.35214    -82.35214     2.328297 
  354000    1062.7852   -80.025053   -82.360441   -82.360441    2.3353881 
  355000    1054.1717   -80.011302   -82.327763   -82.327763    2.3164606 
  356000    1072.1403    -80.06892   -82.424865   -82.424865    2.3559452 
  357000    1063.3846    -79.84617   -82.182876   -82.182876    2.3367052 
  358000    1075.1472   -79.871694   -82.234247   -82.234247    2.3625526 
  359000    1087.1566   -79.941942   -82.330885   -82.330885    2.3889424 
  360000    1070.4081    -80.08275   -82.434889   -82.434889    2.3521387 
  361000    1082.0794   -80.017996   -82.395781   -82.395781    2.3777856 
  362000      1088.49   -79.939148    -82.33102    -82.33102    2.3918725 
  363000    1089.3023   -80.010106   -82.403763   -82.403763    2.3936573 
  364000     1091.011   -79.914144   -82.311556   -82.311556    2.3974121 
  365000    1093.8625   -80.047631   -82.451309   -82.451309     2.403678 
  366000    1102.2846   -80.024198   -82.446383   -82.446383    2.4221848 
  367000     1091.629   -79.797178   -82.195949   -82.195949    2.3987702 
  368000    1101.4783   -80.011691   -82.432105   -82.432105    2.4204132 
  369000    1113.9255   -79.971823   -82.419588   -82.419588     2.447765 
  370000    1104.0268   -80.035114   -82.461128   -82.461128    2.4260134 
  371000      1109.62   -80.021176    -82.45948    -82.45948     2.438304 
  372000    1121.8519   -79.989315   -82.454498   -82.454498    2.4651826 
  373000    1114.4066   -79.963507   -82.412329   -82.412329     2.448822 
  374000    1123.8203   -80.016151   -82.485659   -82.485659    2.4695079 
  375000    1133.0324   -79.970903   -82.460653   -82.460653    2.4897508 
  376000    1121.3381    -79.89883   -82.362883   -82.362883    2.4640535 
  377000    1123.5326   -79.994922   -82.463798   -82.463798    2.4688758 
  378000    1141.0719   -79.985191   -82.492607   -82.492607     2.507417 
  379000    1139.6098   -79.905288   -82.409492   -82.409492    2.5042042 
  380000    1135.4749   -79.882931    -82.37805    -82.37805    2.4951181 
  381000     1141.151   -79.923309     -82.4309     -82.4309    2.5075908 
  382000    1145.8623    -79.94189   -82.459834   -82.459834    2.5179435 
  383000    1157.8953   -79.972354   -82.516739   -82.516739    2.5443851 
  384000    1227.3104   -83.211143   -85.908063   -85.908063    2.6969195 
  385000    1136.2218   -84.335614   -86.832374   -86.832374    2.4967592 
  386000    1190.7835   -86.634429   -89.251083   -89.251083    2.6166543 
  387000    1140.5848   -87.973188   -90.479534   -90.479534    2.5063466 
  388000    1167.5974   -88.711437   -91.277142   -91.277142    2.5657047 
  389000    1117.5009   -89.374379       -91.83       -91.83    2.4556216 
  390000     1117.206   -88.908511   -91.363485   -91.363485    2.4549736 
  391000     1157.815   -88.768093   -91.312302   -91.312302    2.5442088 
  392000    1195.5541   -88.683572    -91.31071    -91.31071    2.6271375 
  393000      1165.39   -87.954403   -90.515257   -90.515257    2.5608543 
  394000    1196.3323   -89.880694   -92.509541   -92.509541    2.6288475 
  395000      1238.01   -89.038115   -91.758546   -91.758546     2.720431 
  396000    1262.5634   -87.923568   -90.697953   -90.697953    2.7743852 
  397000    1200.9618   -89.398034   -92.037054   -92.037054    2.6390204 
  398000    1166.4559   -90.325127   -92.888323   -92.888323    2.5631964 
  399000    1183.2291   -88.759073   -91.359127   -91.359127    2.6000541 
  400000    1188.1467   -89.011792   -91.622652   -91.622652    2.6108602 
  401000    1204.8628   -88.349425   -90.997018   -90.997018    2.6475925 
  402000    1226.8798   -89.430617    -92.12659    -92.12659    2.6959732 
  403000     1149.425   -89.226106   -91.751879   -91.751879    2.5257724 
  404000    1280.6582   -89.729237   -92.543384   -92.543384     2.814147 
  405000    1209.7305   -88.588007   -91.246296   -91.246296    2.6582889 
  406000    1209.1445   -89.803922   -92.460924   -92.460924    2.6570013 
  407000    1201.0664   -88.358959   -90.998209   -90.998209    2.6392503 
  408000    1235.4071   -88.954648   -91.669359   -91.669359    2.7147113 
  409000     1201.321   -89.014698   -91.654508   -91.654508    2.6398097 
  410000    1220.3091    -90.53592   -93.217455   -93.217455    2.6815346 
  411000     1206.003   -88.677749   -91.327847   -91.327847    2.6500981 
  412000    1199.8142    -88.20693   -90.843428   -90.843428    2.6364986 
  413000    1260.3214   -88.933384   -91.702842   -91.702842    2.7694586 
  414000    1236.2206   -90.597284   -93.313783   -93.313783    2.7164988 
  415000    1296.2019   -89.305058   -92.153361   -92.153361    2.8483032 
  416000    1243.2406   -89.117522   -91.849447   -91.849447    2.7319247 
  417000    1258.1004   -89.544172    -92.30875    -92.30875    2.7645782 
  418000    1232.0086   -89.425017    -92.13226    -92.13226    2.7072433 
  419000    1272.9035   -89.367938   -92.165044   -92.165044    2.7971067 
  420000    1175.7834   -89.341332   -91.925025   -91.925025    2.5836929 
  421000    1264.3372   -89.109735   -91.888018   -91.888018    2.7782829 
  422000    1276.8583   -89.530784   -92.336581   -92.336581     2.805797 
  423000    1268.0113   -89.592603    -92.37896    -92.37896    2.7863566 
  424000    1295.4917   -88.674513   -91.521256   -91.521256    2.8467426 
  425000    1284.8209     -89.4033   -92.226594   -92.226594    2.8232944 
  426000    1292.7472   -89.823497   -92.664209   -92.664209    2.8407117 
  427000    1275.3836   -89.860392   -92.662948   -92.662948    2.8025566 
  428000    1256.0595   -89.598197   -92.358291   -92.358291    2.7600933 
  429000    1318.5095   -88.652582   -91.549904   -91.549904    2.8973225 
  430000    1335.3725   -89.565126   -92.499503   -92.499503    2.9343774 
  431000    1254.3454   -90.198296   -92.954623   -92.954623    2.7563268 
  432000    1295.9678   -89.706401   -92.554189   -92.554189    2.8477888 
  433000    1285.5134    -90.17402   -92.998836   -92.998836     2.824816 
  434000    1311.8524   -89.487214   -92.369908   -92.369908    2.8826939 
  435000    1325.4173   -90.128773   -93.041275   -93.041275    2.9125018 
  436000     1254.873   -89.409493   -92.166979   -92.166979    2.7574861 
  437000    1335.4047   -89.568558   -92.503007   -92.503007    2.9344483 
  438000    1322.8435   -90.147878   -93.054724   -93.054724    2.9068459 
  439000    1335.8052   -89.601059   -92.536387   -92.536387    2.9353283 
  440000    1332.9675   -90.317683   -93.246776   -93.246776    2.9290928 
  441000    1329.8884   -89.599153   -92.521479   -92.521479    2.9223266 
  442000    1315.9667    -89.60165   -92.493384   -92.493384    2.8917348 
  443000    1359.8127    -89.66812   -92.656203   -92.656203     2.988083 
  444000    1307.1431   -89.390693   -92.263039   -92.263039    2.8723455 
  445000    1349.3378   -89.942115    -92.90718    -92.90718    2.9650653 
  446000     1345.028   -90.015018   -92.970613   -92.970613    2.9555948 
  447000    1344.9947   -90.060536   -93.016057   -93.016057    2.9555217 
  448000    1329.0395    -90.07109   -92.991551   -92.991551    2.9204612 
  449000    1356.7564    -89.90404   -92.885407   -92.885407    2.9813669 
  450000    1381.9667    -89.87768   -92.914445   -92.914445    3.0367647 
  451000    1361.1617     -89.8942   -92.885247   -92.885247    2.9910472 
  452000    1361.2564   -89.884949   -92.876205   -92.876205    2.9912555 
  453000    1358.2428   -89.973936   -92.958569   -92.958569    2.9846332 
  454000    1369.5124   -90.108385   -93.117782   -93.117782    3.0093973 
  455000    1352.9158   -90.152644   -93.125572   -93.125572    2.9729276 
  456000    1355.4797   -90.061092   -93.039653   -93.039653    2.9785616 
  457000    1377.5953   -89.925463   -92.952622   -92.952622    3.0271589 
  458000    1356.4312   -90.211666   -93.192319   -93.192319    2.9806524 
  459000    1388.7439   -89.942962   -92.994619   -92.994619     3.051657 
  460000    1382.7844   -89.992337   -93.030898   -93.030898    3.0385615 
  461000    1362.6983   -90.264979   -93.259403   -93.259403    2.9944239 
  462000    1377.4149   -90.203793   -93.230555   -93.230555    3.0267624 
  463000    1410.4991    -89.90047   -92.999932   -92.999932    3.0994624 
  464000    1403.6101   -90.197072   -93.281396   -93.281396    3.0843244 
  465000    1407.5387   -90.047942   -93.140899   -93.140899    3.0929572 
  466000     1396.916   -90.306648   -93.376263   -93.376263    3.0696146 
  467000    1407.1688   -90.124919   -93.217064   -93.217064    3.0921443 
  468000    1403.7135   -90.330869   -93.415421   -93.415421    3.0845517 
  469000    1418.1253   -90.035848   -93.152068   -93.152068    3.1162204 
  470000    1412.5179   -90.091732    -93.19563    -93.19563    3.1038986 
  471000     1412.599   -90.341129   -93.445206   -93.445206    3.1040767 
  472000    1415.3064   -90.219447   -93.329473   -93.329473    3.1100261 
  473000    1411.5527   -90.184081   -93.285859   -93.285859    3.1017776 
  474000    1418.3645    -89.89761   -93.014356   -93.014356    3.1167461 
  475000    1422.4262   -90.165037   -93.290709   -93.290709    3.1256712 
  476000    1417.9606   -89.762182   -92.878041   -92.878041    3.1158585 
  477000    1434.6724   -90.175543   -93.328124   -93.328124    3.1525813 
  478000    1415.1301    -90.22495   -93.334589   -93.334589    3.1096388 
  479000    1436.7424   -90.059953   -93.217083   -93.217083      3.15713 
  480000    1447.0702   -90.145972   -93.325797   -93.325797    3.1798245 
  481000    1437.2169   -90.113683   -93.271856   -93.271856    3.1581726 
  482000    1444.3514   -90.380765   -93.554615   -93.554615    3.1738503 
  483000    1455.3987   -90.327438   -93.525563   -93.525563    3.1981258 
  484000    1450.1936    -90.23738   -93.424068   -93.424068     3.186688 
  485000    1446.3474   -90.196011   -93.374247   -93.374247    3.1782364 
  486000    1468.0986   -90.121678   -93.347711   -93.347711    3.2260328 
  487000    1455.1932   -90.146905    -93.34458    -93.34458    3.1976743 
  488000    1460.7969    -90.04733   -93.257318   -93.257318    3.2099879 
  489000    1466.6029   -90.369983   -93.592729   -93.592729    3.2227462 
  490000    1473.8608   -90.180094   -93.418789   -93.418789    3.2386949 
  491000    1477.1274   -90.080346   -93.326219   -93.326219     3.245873 
  492000    1472.6773   -90.137401   -93.373495   -93.373495    3.2360941 
  493000    1482.6093   -90.229685   -93.487604   -93.487604     3.257919 
  494000     1492.475   -90.096162    -93.37576    -93.37576    3.2795981 
  495000     1490.602    -90.50601   -93.781493   -93.781493    3.2754823 
  496000    1481.6873   -90.168248   -93.424141   -93.424141     3.255893 
  497000    1486.5322    -90.50888   -93.775419   -93.775419    3.2665393 
  498000    1487.2751   -90.179028   -93.447199   -93.447199    3.2681718 
  499000    1493.3527   -90.255726   -93.537253   -93.537253    3.2815267 
  500000    1500.5109    -90.04659   -93.343846   -93.343846    3.2972563 
  501000    1507.9913   -90.350769   -93.664463   -93.664463    3.3136939 
  502000    1502.7556   -90.068047   -93.370236   -93.370236    3.3021889 
  503000    1517.7357   -90.177322   -93.512428   -93.512428    3.3351065 
  504000    1528.8583   -90.180837   -93.540385   -93.540385    3.3595476 
  505000    1501.0762   -90.340896   -93.639394   -93.639394    3.2984985 
  506000    1511.2707   -90.265332   -93.586232   -93.586232    3.3209002 
  507000    1521.1309   -90.149059   -93.491626   -93.491626    3.3425671 
  508000    1525.3968   -90.242547   -93.594488   -93.594488    3.3519412 
  509000    1522.6296   -90.350374   -93.696234   -93.696234    3.3458606 
  510000    1522.2289   -90.128287   -93.473267   -93.473267    3.3449799 
  511000    1544.7178   -90.123068   -93.517465   -93.517465    3.3943976 
  512000    1526.9327   -90.307549   -93.662865   -93.662865    3.3553162 
  513000    1538.4892   -90.398769   -93.779479   -93.779479    3.3807107 
  514000    1544.8898   -90.264458   -93.659233   -93.659233    3.3947755 
  515000    1537.9332   -90.268805   -93.648294   -93.648294    3.3794889 
  516000    1553.5968   -90.298925   -93.712833   -93.712833    3.4139086 
  517000    1565.7697   -90.155068   -93.595725   -93.595725    3.4406574 
  518000    1556.2854   -90.117851   -93.537668   -93.537668    3.4198164 
  519000    1558.6605   -90.385987   -93.811023   -93.811023    3.4250355 
  520000    1556.1753   -90.149318   -93.568892   -93.568892    3.4195746 
  521000    1554.6199   -90.212242   -93.628398   -93.628398    3.4161567 
  522000    1566.8474   -90.140319   -93.583345   -93.583345    3.4430258 
  523000    1587.8591   -90.292661   -93.781858   -93.781858    3.4891973 
  524000    1579.9638   -90.308941   -93.780789   -93.780789     3.471848 
  525000    1574.8615   -90.095814   -93.556451   -93.556451    3.4606361 
  526000    1591.5654   -90.071626   -93.568968   -93.568968    3.4973415 
  527000    1589.8671   -90.425584   -93.919194   -93.919194    3.4936098 
  528000    1579.1586    -90.20972   -93.679799   -93.679799    3.4700785 
  529000    1577.8031   -90.372368   -93.839468   -93.839468    3.4670999 
  530000    1587.3937   -90.295798   -93.783973   -93.783973    3.4881746 
  531000    1589.0377   -90.198817   -93.690604   -93.690604    3.4917871 
  532000    1595.0626   -90.247046   -93.752072   -93.752072    3.5050264 
  533000    1612.1577   -90.189649   -93.732241   -93.732241    3.5425915 
  534000    1602.2349   -90.160316   -93.681103   -93.681103     3.520787 
  535000    1597.0035   -90.184861   -93.694152   -93.694152    3.5092913 
  536000    1600.7424   -90.307363    -93.82487    -93.82487    3.5175074 
  537000    1617.8104   -90.099159   -93.654172   -93.654172    3.5550129 
  538000     1617.564   -90.301306   -93.855777   -93.855777    3.5544715 
  539000    1625.0482   -90.164341   -93.735258   -93.735258    3.5709173 
  540000    1619.7749   -90.185496   -93.744826   -93.744826    3.5593298 
  541000    1628.6349   -90.162251    -93.74105    -93.74105    3.5787989 
  542000     1627.536    -90.13178   -93.708164   -93.708164    3.5763841 
  543000    1628.7532   -90.036508   -93.615567   -93.615567     3.579059 
  544000    1632.8867   -90.215101   -93.803243   -93.803243     3.588142 
  545000    1628.7791   -90.282106   -93.861222   -93.861222    3.5791159 
  546000    1637.5103   -90.195775   -93.794077   -93.794077    3.5983018 
  547000     1643.222   -90.140931   -93.751784   -93.751784    3.6108529 
  548000    1644.8734   -90.079098   -93.693579   -93.693579    3.6144817 
  549000    1648.2695   -90.073397   -93.695342   -93.695342    3.6219445 
  550000    1646.0155   -90.232153   -93.849145   -93.849145    3.6169915 
  551000    1649.3097   -90.234669   -93.858899   -93.858899    3.6242302 
  552000    1655.6196   -90.157497   -93.795593   -93.795593    3.6380956 
  553000    1658.2407   -90.239371   -93.883226   -93.883226    3.6438553 
  554000    1670.7084   -90.171339   -93.842591   -93.842591    3.6712522 
  555000     1666.991    -90.18902   -93.852104   -93.852104    3.6630834 
  556000     1667.002   -90.191644   -93.854752   -93.854752    3.6631077 
  557000    1673.8726   -90.179535   -93.857741   -93.857741    3.6782052 
  558000    1665.8719   -90.166379   -93.827004   -93.827004    3.6606244 
  559000    1687.0884   -90.176748   -93.883994   -93.883994    3.7072459 
  560000    1679.6414   -90.181175   -93.872056   -93.872056    3.6908817 
  561000    1676.6257   -90.184838   -93.869093   -93.869093    3.6842549 
  562000    1581.4658   -93.400774   -96.875923   -96.875923    3.4751485 
  563000    1685.8651    -93.01129   -96.715848   -96.715848    3.7045578 
  564000    1729.5794   -94.049177   -97.849794   -97.849794    3.8006167 
  565000    1699.0631   -92.807767   -96.541326   -96.541326    3.7335594 
  566000    1722.0884   -93.713001   -97.497156   -97.497156    3.7841558 
  567000    1740.7169   -93.517413   -97.342503   -97.342503    3.8250904 
  568000    1704.9135   -93.600118   -97.346534   -97.346534    3.7464153 
  569000    1715.7284   -93.703185   -97.473365   -97.473365    3.7701801 
  570000    1712.6927   -93.970855   -97.734364   -97.734364    3.7635095 
  571000    1716.3303    -93.51709   -97.288592   -97.288592    3.7715027 
  572000    1666.9038   -91.118146   -94.781038   -94.781038    3.6628919 
  573000    1728.8564   -91.628256   -95.427284   -95.427284     3.799028 
  574000    1707.9324   -93.431648   -97.184697   -97.184697    3.7530491 
  575000    1741.6175   -92.726924   -96.553993   -96.553993    3.8270693 
  576000    1750.0799    -92.58243   -96.428095   -96.428095     3.845665 
  577000    1660.0004   -92.247508   -95.895231   -95.895231    3.6477221 
  578000    1686.9072   -92.826854   -96.533702   -96.533702    3.7068479 
  579000    1661.1965   -93.003525   -96.653875   -96.653875    3.6503504 
  580000    1742.5841   -92.246226   -96.075419   -96.075419    3.8291934 
  581000    1748.1818   -92.451716    -96.29321    -96.29321     3.841494 
  582000    1746.7573   -91.995719   -95.834082   -95.834082    3.8383638 
  583000    1739.3342   -92.652626   -96.474678   -96.474678    3.8220521 
  584000    1680.7355   -91.801085   -95.494371   -95.494371     3.693286 
  585000    1709.5513   -91.264597   -95.021203   -95.021203    3.7566064 
  586000     1763.261   -91.539534   -95.414164   -95.414164    3.8746294 
  587000     1757.638   -92.026373   -95.888646   -95.888646    3.8622732 
  588000    1749.7645   -91.089696   -94.934668   -94.934668    3.8449719 
  589000    1720.4397    -92.12842   -95.908953   -95.908953    3.7805327 
  590000    1768.6063   -92.103167   -95.989542   -95.989542    3.8863753 
  591000    1774.9498   -91.843498   -95.743813   -95.743813    3.9003145 
  592000    1708.1977    -90.11142   -93.865052   -93.865052     3.753632 
  593000    1718.6592   -92.204758   -95.981379   -95.981379    3.7766203 
  594000    1828.5238    -92.02295    -96.04099    -96.04099    4.0180394 
  595000    1857.3663    -91.66429   -95.745709   -95.745709    4.0814184 
  596000     1812.324   -90.683778   -94.666219   -94.666219    3.9824416 
  597000    1792.7737   -92.775559    -96.71504    -96.71504    3.9394811 
  598000    1756.3193   -91.726416   -95.585792   -95.585792    3.8593756 
  599000     1819.543   -91.277966    -95.27627    -95.27627    3.9983047 
  600000    1797.8304   -93.837886   -97.788479   -97.788479    3.9505929 
  601000    1760.5077    -91.93893   -95.807509   -95.807509    3.8685792 
  602000    1772.8086   -92.064427   -95.960037   -95.960037    3.8956094 
  603000    1827.7197   -92.130047    -96.14632    -96.14632    4.0162723 
  604000    1747.7595   -91.886057   -95.726623   -95.726623     3.840566 
  605000    1912.0702   -91.457473   -95.659098   -95.659098    4.2016259 
  606000    1864.9992   -92.565707   -96.663899   -96.663899    4.0981912 
  607000    1756.1453   -92.917268   -96.776262   -96.776262    3.8589932 
  608000      1769.15   -91.620792   -95.508362   -95.508362      3.88757 
  609000    1889.9999   -91.882171   -96.035299   -96.035299    4.1531282 
  610000    1806.3443   -92.425833   -96.395134   -96.395134    3.9693016 
  611000     1796.145   -91.711069   -95.657959   -95.657959    3.9468895 
  612000    1779.3113   -92.010843   -95.920741   -95.920741    3.9098987 
  613000    1795.6718   -92.959404   -96.905253   -96.905253    3.9458496 
  614000    1908.0914   -91.675016   -95.867899   -95.867899    4.1928829 
  615000    1897.6228   -91.964026   -96.133905   -96.133905    4.1698789 
  616000    1810.4973   -89.329941   -93.308369   -93.308369    3.9784275 
  617000    1874.5759    -91.83877   -95.958006   -95.958006    4.1192351 
  618000     1887.867   -91.389544   -95.537986   -95.537986    4.1484415 
  619000    1837.2817   -92.057441   -96.094725   -96.094725    4.0372841 
  620000    1797.4706   -91.920867    -95.87067    -95.87067    3.9498023 
  621000    1844.0615   -91.784485   -95.836667   -95.836667    4.0521822 
  622000    1900.3785   -91.382629   -95.558564   -95.558564    4.1759343 
  623000    1852.1329   -91.724509   -95.794427   -95.794427    4.0699185 
  624000    1841.2762   -91.315274   -95.361336   -95.361336    4.0460616 
  625000    1887.9032   -92.488481   -96.637002   -96.637002    4.1485209 
  626000    1852.1954   -92.741868   -96.811924   -96.811924    4.0700559 
  627000    1799.7326   -92.495051   -96.449824   -96.449824    3.9547729 
  628000    1864.7827    -91.63954   -95.737255   -95.737255    4.0977153 
  629000    1898.1876   -91.415427   -95.586547   -95.586547      4.17112 
  630000    1847.4719   -91.123327   -95.183003   -95.183003    4.0596763 
  631000    2011.6825   -91.392018   -95.812535   -95.812535    4.4205162 
  632000    1862.6813      -91.854   -95.947097   -95.947097    4.0930977 
  633000     1878.009   -92.556988   -96.683767   -96.683767    4.1267791 
  634000    1912.7301   -92.582279   -96.785356   -96.785356    4.2030762 
  635000    1901.0902   -92.121878   -96.299376   -96.299376    4.1774983 
  636000    1951.3148   -92.141746   -96.429609   -96.429609    4.2878629 
  637000     1916.519   -91.020442   -95.231844   -95.231844    4.2114018 
  638000    2020.5682   -92.412037   -96.852079   -96.852079    4.4400419 
  639000    1905.5598    -90.85778     -95.0451     -95.0451      4.18732 
  640000    1947.8612   -91.113409   -95.393683   -95.393683    4.2802739 
  641000    1999.1069   -91.502568    -95.89545    -95.89545    4.3928824 
  642000    1956.9471   -90.669035   -94.969274   -94.969274    4.3002395 
  643000    2012.8473   -90.998381   -95.421457   -95.421457    4.4230758 
  644000    1894.0637   -92.761532    -96.92359    -96.92359    4.1620581 
  645000    1951.4295     -92.1915   -96.479615   -96.479615     4.288115 
  646000    1917.2365   -93.113103   -97.326082   -97.326082    4.2129786 
  647000    1884.9435   -93.073054   -97.215071   -97.215071    4.1420173 
  648000    2016.1605   -92.486555   -96.916912   -96.916912    4.4303564 
  649000    1840.4046   -93.313311   -97.357457   -97.357457    4.0441464 
  650000    2048.4548    -92.30006   -96.801381   -96.801381    4.5013207 
  651000    1856.7681   -93.380069   -97.460173   -97.460173     4.080104 
  652000    2006.9511   -91.205587   -95.615706   -95.615706    4.4101194 
  653000    1984.4795   -89.698323   -94.059063   -94.059063    4.3607398 
  654000    1929.4593   -90.962144   -95.201981   -95.201981    4.2398373 
  655000    2028.0535   -92.274336   -96.730826   -96.730826    4.4564904 
  656000     2022.916   -90.961804   -95.407005   -95.407005     4.445201 
  657000     1897.246   -90.384118   -94.553169   -94.553169     4.169051 
  658000    2016.5187   -91.350841   -95.781985   -95.781985    4.4311436 
  659000    1940.2736   -92.472149    -96.73575    -96.73575    4.2636008 
  660000    2013.4755   -91.298992   -95.723448   -95.723448    4.4244563 
  661000    1930.3403    -91.70525   -95.947024   -95.947024    4.2417732 
  662000    2055.4342   -93.048094   -97.564752   -97.564752    4.5166572 
  663000    1897.8358   -89.693031   -93.863378   -93.863378    4.1703471 
  664000    1917.4251   -91.219329   -95.432722   -95.432722    4.2133931 
  665000    1965.2788    -91.05275   -95.371298   -95.371298    4.3185478 
  666000     1910.256   -90.271233   -94.468873   -94.468873    4.1976395 
  667000    2046.6656   -89.151008   -93.648397   -93.648397     4.497389 
  668000    1962.8878   -92.392053   -96.705347   -96.705347    4.3132938 
  669000    2082.5113     -91.6419   -96.218057   -96.218057    4.5761572 
  670000     2038.805   -90.550893   -95.031009   -95.031009    4.4801159 
  671000    1993.5057   -90.740391   -95.120965   -95.120965    4.3805743 
  672000    2013.5663   -92.854398   -97.279054   -97.279054    4.4246558 
  673000    1998.2429    -92.09833   -96.489314   -96.489314    4.3909838 
  674000    2025.8218    -92.50915   -96.960736   -96.960736    4.4515864 
  675000    2060.3861   -91.406331    -95.93387    -95.93387    4.5275388 
  676000    2011.7287    -92.54923   -96.969848   -96.969848    4.4206177 
  677000    2042.2836   -92.693537   -97.181297   -97.181297    4.4877599 
  678000    2017.3685    -92.13906   -96.572071   -96.572071    4.4330109 
  679000    1940.7852   -91.994115    -96.25884    -96.25884     4.264725 
  680000    2085.4037   -91.691206   -96.273719   -96.273719     4.582513 
  681000    2050.9735    -92.68094   -97.187796   -97.187796    4.5068553 
  682000    2024.5965   -91.284786    -95.73368    -95.73368    4.4488937 
  683000    2011.1552   -91.042414   -95.461772   -95.461772    4.4193575 
  684000    2092.5511   -91.107253   -95.705472   -95.705472    4.5982189 
  685000    2076.2217   -92.041255   -96.603591   -96.603591    4.5623362 
  686000    2025.8032   -89.701774   -94.153319   -94.153319    4.4515455 
  687000    2058.5813   -91.664314   -96.187886   -96.187886    4.5235728 
  688000    2066.8546   -90.808479   -95.350231   -95.350231    4.5417528 
  689000    2144.3804   -89.005659   -93.717769   -93.717769    4.7121097 
  690000    2104.0736     -90.2099   -94.833439   -94.833439    4.6235386 
  691000    2164.0977   -91.100384   -95.855821   -95.855821     4.755437 
  692000     2024.703   -91.218658   -95.667786   -95.667786    4.4491278 
  693000    2115.5383   -89.625693   -94.274425   -94.274425    4.6487314 
  694000     2204.825   -88.851346   -93.696278   -93.696278    4.8449321 
  695000    2096.2409   -91.899111   -96.505438   -96.505438    4.6063269 
  696000     2060.802   -90.752679   -95.281132   -95.281132    4.5284526 
  697000    2107.5701   -91.349692   -95.980914   -95.980914    4.6312219 
  698000    2095.6416   -91.881257   -96.486267   -96.486267    4.6050099 
  699000    2108.2967   -88.308327   -92.941145   -92.941145    4.6328186 
  700000    2108.8349   -92.347301   -96.981302   -96.981302    4.6340011 
  701000    2119.2615   -90.894741   -95.551654   -95.551654    4.6569129 
  702000    2114.6415   -91.425296   -96.072057   -96.072057    4.6467607 
  703000    2047.1334   -91.279209   -95.777626   -95.777626    4.4984169 
  704000    2139.0364    -90.24688   -94.947246   -94.947246    4.7003665 
  705000    2140.3621   -90.907388   -95.610668   -95.610668    4.7032797 
  706000    2136.7242   -91.299061   -95.994347   -95.994347    4.6952857 
  707000    2046.5361    -90.31183   -94.808934   -94.808934    4.4971044 
  708000    2183.3667   -89.855659   -94.653438   -94.653438    4.7977791 
  709000    2168.5795   -90.882616   -95.647902   -95.647902    4.7652853 
  710000    1997.9534   -90.811587   -95.201935   -95.201935    4.3903478 
  711000     2148.462   -91.663954   -96.385033   -96.385033    4.7210786 
  712000    2114.9437   -91.054261   -95.701686   -95.701686    4.6474248 
  713000    2159.3438   -92.555798   -97.300789   -97.300789    4.7449905 
  714000    2127.2596   -92.627132    -97.30162    -97.30162    4.6744881 
  715000    2116.2157   -90.791703   -95.441922   -95.441922    4.6502199 
  716000    2090.3556   -90.246883   -94.840277   -94.840277    4.5933944 
  717000    2183.5057   -92.339847   -97.137932   -97.137932    4.7980846 
  718000    2183.8414   -89.799258    -94.59808    -94.59808    4.7988221 
  719000    2142.7829   -91.585362   -96.293961   -96.293961    4.7085993 
  720000    2163.6534   -90.312729    -95.06719    -95.06719    4.7544605 
  721000    2133.2179   -92.274208   -96.961789   -96.961789    4.6875809 
  722000     2198.689   -90.620291    -95.45174    -95.45174    4.8314485 
  723000    2159.4229   -91.737517   -96.482681   -96.482681    4.7451644 
  724000     2179.898   -91.796192   -96.586349   -96.586349    4.7901569 
  725000    2169.3125   -89.853066   -94.619962   -94.619962     4.766896 
  726000    2180.8939   -91.621192   -96.413538   -96.413538    4.7923453 
  727000    2269.1955   -91.050919     -96.0373     -96.0373    4.9863811 
  728000     2241.359    -91.87535   -96.800563   -96.800563    4.9252127 
  729000    2221.5943   -92.692909    -97.57469    -97.57469    4.8817812 
  730000    2132.9202   -92.914358   -97.601285   -97.601285    4.6869268 
  731000    2112.0948   -91.727383   -96.368548   -96.368548    4.6411646 
  732000    2054.5288   -91.622081   -96.136749   -96.136749    4.5146677 
  733000    2273.2623   -90.980488   -95.975805   -95.975805    4.9953177 
  734000    2059.0696   -88.774132   -93.298778   -93.298778    4.5246458 
  735000    2229.6377   -92.067571   -96.967027   -96.967027    4.8994561 
  736000    2275.8307   -92.301059   -97.302021   -97.302021    5.0009615 
  737000    2234.8455   -93.177947   -98.088846   -98.088846    4.9108997 
  738000    2201.3829   -91.557769   -96.395137   -96.395137    4.8373682 
  739000    2265.7646   -91.157273   -96.136116   -96.136116    4.9788421 
  740000    2311.6511   -89.322515   -94.402189   -94.402189    5.0796741 
  741000    2234.1538   -90.567714   -95.477094   -95.477094    4.9093797 
  742000    2248.7028   -92.265454   -97.206804   -97.206804    4.9413501 
  743000    2301.8657   -91.734061   -96.792233   -96.792233    5.0581714 
  744000    2164.6567   -92.424913   -97.181578   -97.181578    4.7566653 
  745000    2244.0343   -92.476546   -97.407638   -97.407638    4.9310914 
  746000    2345.6125   -91.363344   -96.517646   -96.517646    5.1543016 
  747000    2273.5575    -91.14547   -96.141436   -96.141436    4.9959663 
  748000    2142.5876   -91.499032   -96.207202   -96.207202    4.7081702 
  749000    2198.6123   -90.885763   -95.717043   -95.717043      4.83128 
  750000    2100.6304   -88.318809   -92.934781   -92.934781    4.6159725 
  751000    2343.9284   -91.641882   -96.792483   -96.792483    5.1506009 
  752000    2293.1308   -91.326215   -96.365192   -96.365192    5.0389772 
  753000    2265.9669   -92.022316   -97.001603   -97.001603    4.9792866 
  754000    2231.9654   -91.437412   -96.341983   -96.341983    4.9045709 
  755000    2297.4745   -93.536863   -98.585385   -98.585385    5.0485221 
  756000    2315.4312   -90.144469   -95.232449   -95.232449    5.0879805 
  757000    2365.8191   -90.315998   -95.514703   -95.514703    5.1987041 
  758000    2270.0557   -93.474066   -98.462337   -98.462337    4.9882713 
  759000    2236.7821   -91.581792   -96.496947   -96.496947    4.9151553 
  760000    2422.7935   -92.271939    -97.59584    -97.59584    5.3239008 
  761000    2332.4525   -88.568152   -93.693536   -93.693536    5.1253836 
  762000    2302.3262    -90.48444   -95.543623   -95.543623    5.0591834 
  763000    2332.3131   -91.586609   -96.711686   -96.711686    5.1250772 
  764000    2252.8649   -92.980988   -97.931484   -97.931484    4.9504959 
  765000    2332.0726    -90.23419   -95.358739   -95.358739    5.1245487 
  766000    2463.5438    -90.09469   -95.508136   -95.508136    5.4134464 
  767000    2217.7239   -91.235313   -96.108589   -96.108589    4.8732763 
  768000    2141.2348   -89.885201   -94.590399   -94.590399    4.7051975 
  769000    2311.6918   -93.052313   -98.132077   -98.132077    5.0797635 
  770000    2290.1908   -92.167801   -97.200318   -97.200318    5.0325167 
  771000    2188.9628   -90.308147   -95.118223   -95.118223    4.8100761 
  772000    2273.6928   -90.704966   -95.701229   -95.701229    4.9962637 
  773000    2419.3955   -90.841656    -96.15809    -96.15809     5.316434 
  774000    2216.6133   -89.801273   -94.672109   -94.672109    4.8708359 
  775000    2354.7015   -91.242593   -96.416867   -96.416867     5.174274 
  776000    2375.9034   -91.328468   -96.549332   -96.549332    5.2208636 
  777000     2347.056   -92.044971   -97.202444   -97.202444    5.1574735 
  778000    2377.7858   -90.285543   -95.510543   -95.510543    5.2249999 
  779000     2380.428   -89.854462   -95.085268   -95.085268    5.2308059 
  780000     2274.898   -90.111244   -95.110156   -95.110156    4.9989119 
  781000    2339.0697   -91.756252   -96.896177   -96.896177    5.1399244 
  782000    2403.8053   -91.330473   -96.612649   -96.612649    5.2821758 
  783000    2363.7768    -90.43583   -95.630046   -95.630046    5.1942162 
  784000    2274.3689   -90.254478   -95.252227   -95.252227    4.9977492 
  785000    2345.4893   -89.132028   -94.286059   -94.286059    5.1540309 
  786000    2335.1996   -90.361041   -95.492461   -95.492461      5.13142 
  787000    2505.6412   -89.770515   -95.276467   -95.276467    5.5059522 
  788000    2347.2509   -90.926768    -96.08467    -96.08467    5.1579019 
  789000    2390.7871   -91.716246   -96.969815   -96.969815    5.2535692 
  790000    2461.5295   -91.779347   -97.188367   -97.188367    5.4090202 
  791000    2356.8235   -88.098116   -93.277053   -93.277053    5.1789368 
  792000    2416.4063   -90.663371   -95.973237   -95.973237    5.3098656 
  793000     2371.957   -89.881272   -95.093464   -95.093464    5.2121917 
  794000    2441.4423   -91.070876   -96.435756   -96.435756    5.3648801 
  795000    2437.0866   -91.632634   -96.987943   -96.987943    5.3553089 
  796000    2373.5419   -89.648831   -94.864506   -94.864506    5.2156744 
  797000     2414.751   -92.128818   -97.435047   -97.435047     5.306228 
  798000    2421.8551   -91.912662   -97.234501   -97.234501    5.3218388 
  799000    2393.4863   -89.189805   -94.449306   -94.449306    5.2595007 
  800000    2364.4828   -92.502639   -97.698406   -97.698406    5.1957675 
  801000     2269.847   -90.959335   -95.947147   -95.947147    4.9878128 
  802000    2362.5254   -92.210487   -97.401954   -97.401954    5.1914664 
  803000    2269.5257   -91.415469   -96.402576   -96.402576    4.9871067 
  804000    2488.1461   -92.829778   -98.297286   -98.297286    5.4675082 
  805000    2378.1963   -90.043501   -95.269403   -95.269403     5.225902 
  806000    2340.1128   -91.209455   -96.351671   -96.351671    5.1422163 
  807000    2456.6929   -91.364414   -96.762806   -96.762806    5.3983922 
  808000    2396.3397   -88.322719   -93.588489   -93.588489    5.2657707 
  809000    2446.8929   -92.327507   -97.704365   -97.704365    5.3768573 
  810000    2451.9213   -92.513104   -97.901011   -97.901011    5.3879069 
  811000    2557.8128   -91.577534   -97.198129   -97.198129    5.6205954 
  812000    2421.3801   -92.488615    -97.80941    -97.80941    5.3207951 
  813000    2476.4873   -94.682193   -100.12408   -100.12408    5.4418889 
  814000    2393.6235   -93.253827   -98.513629   -98.513629     5.259802 
  815000    2517.6361    -94.14317    -99.67548    -99.67548    5.5323102 
  816000    2427.7534   -93.610279   -98.945079   -98.945079    5.3347998 
  817000    2392.8468   -92.326023   -97.584118   -97.584118    5.2580954 
  818000    2329.7499   -93.341418   -98.460863   -98.460863    5.1194448 
  819000    2480.3453   -93.944358   -99.394724   -99.394724    5.4503666 
  820000    2525.8123   -93.713638   -99.263915   -99.263915    5.5502767 
  821000    2478.7292   -90.010954   -95.457769   -95.457769    5.4468151 
  822000    2398.3594   -92.151653   -97.421862   -97.421862    5.2702088 
  823000    2325.7452   -93.511987   -98.622631   -98.622631    5.1106447 
  824000    2482.7099   -94.457984   -99.913546   -99.913546    5.4555625 
  825000    2471.4811   -92.279707   -97.710595   -97.710595    5.4308881 
  826000     2442.739   -91.621855   -96.989584   -96.989584    5.3677295 
  827000    2538.3922   -92.432337   -98.010258   -98.010258    5.5779201 
  828000    2442.2709   -92.728081   -98.094782   -98.094782     5.366701 
  829000    2482.4387   -90.802271   -96.257237   -96.257237    5.4549665 
  830000    2505.9121   -92.047385   -97.553932   -97.553932    5.5065476 
  831000    2509.0259   -93.057427   -98.570817   -98.570817    5.5133898 
  832000    2474.9565   -93.392384   -98.830909   -98.830909     5.438525 
  833000     2513.391   -92.981419   -98.504401   -98.504401    5.5229819 
  834000      2451.82   -94.009847   -99.397531   -99.397531    5.3876843 
  835000    2597.4415   -93.261425   -98.969101   -98.969101    5.7076764 
  836000    2534.5631   -93.107787   -98.677293   -98.677293    5.5695059 
  837000    2433.0236   -94.958236   -100.30462   -100.30462    5.3463807 
  838000    2534.9893   -93.639073   -99.209515   -99.209515    5.5704425 
  839000    2460.8735   -94.984877   -100.39246   -100.39246    5.4075787 
  840000    2520.3512   -93.685846   -99.224123   -99.224123    5.5382764 
  841000     2547.191   -92.207727   -97.804981   -97.804981    5.5972548 
  842000     2431.714   -92.478889   -97.822392   -97.822392    5.3435029 
  843000    2613.5239   -91.767578   -97.510594   -97.510594    5.7430161 
  844000    2542.3879   -91.173158   -96.759858   -96.759858    5.5867002 
  845000     2472.557    -93.63689   -99.070142   -99.070142    5.4332524 
  846000    2458.8834   -90.156023   -95.559228   -95.559228    5.4032056 
  847000    2489.8738   -94.585707   -100.05701   -100.05701    5.4713046 
  848000    2669.0391   -91.362599   -97.227606   -97.227606    5.8650064 
  849000    2531.5172   -93.179654   -98.742467   -98.742467    5.5628128 
  850000    2462.7534    -91.58941   -97.001119   -97.001119    5.4117096 
  851000    2565.7202   -92.620524   -98.258495   -98.258495    5.6379713 
  852000    2572.5848   -92.360536   -98.013591   -98.013591    5.6530556 
  853000    2631.3577   -92.103266    -97.88547    -97.88547    5.7822045 
  854000    2742.6741   -92.380986   -98.407799   -98.407799    6.0268138 
  855000    2614.7094   -92.818476   -98.564098   -98.564098    5.7456211 
  856000    2497.4435   -92.368851   -97.856789   -97.856789    5.4879384 
  857000    2481.0601   -92.093089   -97.545026   -97.545026    5.4519372 
  858000    2511.6835    -90.26248    -95.78171    -95.78171    5.5192298 
  859000    2658.9156   -91.886007   -97.728768   -97.728768    5.8427609 
  860000    2636.9795   -92.814105   -98.608663   -98.608663    5.7945581 
  861000    2571.8562    -91.07608   -96.727535   -96.727535    5.6514546 
  862000    2656.5926   -92.524152   -98.361809   -98.361809    5.8376562 
  863000    2632.8274   -92.671585   -98.457019   -98.457019    5.7854341 
  864000    2544.1295    -90.68955   -96.280077   -96.280077    5.5905272 
  865000    2690.3758   -91.402008     -97.3139     -97.3139    5.9118921 
  866000    2566.0875   -92.398794   -98.037573   -98.037573    5.6387782 
  867000     2555.673   -92.030764   -97.646657   -97.646657    5.6158933 
  868000    2565.3976   -91.692441   -97.329703   -97.329703    5.6372623 
  869000    2561.8997   -92.045004    -97.67458    -97.67458     5.629576 
  870000    2581.1146   -91.699038   -97.370838   -97.370838    5.6717992 
  871000    2555.3783   -91.426152   -97.041398   -97.041398    5.6152457 
  872000    2743.6111   -93.828276   -99.857149   -99.857149    6.0288726 
  873000    2703.1212   -92.745277   -98.685176   -98.685176    5.9398993 
  874000     2575.783   -91.187013   -96.847096   -96.847096    5.6600834 
  875000    2608.7141   -93.227303    -98.95975    -98.95975    5.7324469 
  876000    2558.2605   -92.153339   -97.774918   -97.774918    5.6215792 
  877000    2560.9056   -95.094293   -100.72169   -100.72169    5.6273916 
  878000    2650.3679   -94.497158   -100.32114   -100.32114    5.8239779 
  879000    2698.9336   -90.812929   -96.743626   -96.743626    5.9306973 
  880000    2543.3469   -92.776116   -98.364924   -98.364924    5.5888077 
  881000    2696.6162   -90.380423   -96.306028   -96.306028    5.9256051 
  882000    2744.2915   -91.706413   -97.736781   -97.736781    6.0303677 
  883000    2555.2505   -94.074305    -99.68927    -99.68927    5.6149648 
  884000    2544.4416   -91.423852   -97.015065   -97.015065    5.5912132 
  885000    2661.3554   -92.272049   -98.120171   -98.120171    5.8481221 
  886000    2710.2175   -91.481869   -97.437362   -97.437362    5.9554927 
  887000    2789.2635   -91.271477   -97.400667   -97.400667    6.1291902 
  888000    2656.4376   -93.378596   -99.215911   -99.215911    5.8373156 
  889000    2617.1705   -90.748149   -96.499178   -96.499178    5.7510293 
  890000      2723.78   -93.784616   -99.769912   -99.769912    5.9852954 
  891000    2718.2054   -90.643756   -96.616801   -96.616801    5.9730457 
  892000    2616.8263   -92.692779   -98.443052   -98.443052    5.7502729 
  893000    2526.7739   -92.875681    -98.42807    -98.42807    5.5523896 
  894000    2681.2102   -94.193412   -100.08516   -100.08516    5.8917515 
  895000    2526.2765   -90.899026   -96.450322   -96.450322    5.5512967 
  896000    2848.7418   -92.925788   -99.185677   -99.185677    6.2598893 
  897000    2777.8823   -94.753401   -100.85758   -100.85758    6.1041809 
  898000    2659.1958   -92.429094   -98.272471   -98.272471    5.8433765 
  899000    2712.1101   -93.780649   -99.740301   -99.740301    5.9596516 
  900000     2695.244   -92.599093   -98.521683   -98.521683    5.9225897 
  901000    2791.6873   -93.049594   -99.184111   -99.184111    6.1345165 
  902000    2528.5214   -92.392456   -97.948686   -97.948686    5.5562298 
  903000    2634.2765   -95.135328   -100.92395   -100.92395    5.7886183 
  904000    2848.8745   -92.242373   -98.502554   -98.502554    6.2601809 
  905000    2680.4718   -93.693052   -99.583181   -99.583181    5.8901289 
  906000     2749.987   -95.158352   -101.20124   -101.20124    6.0428831 
  907000    2671.5859   -94.101837    -99.97244    -99.97244    5.8706029 
  908000    2709.6754   -94.733483   -100.68778   -100.68778    5.9543017 
  909000    2732.7285   -92.069696   -98.074655   -98.074655     6.004959 
  910000    2567.1958    -90.90887   -96.550084   -96.550084    5.6412137 
  911000    2912.2781   -92.729667   -99.129172   -99.129172    6.3995054 
  912000    2812.3574   -92.529216   -98.709153   -98.709153    6.1799373 
  913000    2698.0395   -91.808426   -97.737159   -97.737159    5.9287327 
  914000    2761.1917   -94.703761   -100.77127   -100.77127    6.0675046 
  915000    2675.0497    -89.42337   -95.301585   -95.301585    5.8782142 
  916000    2880.0967    -92.04735    -98.37614    -98.37614    6.3287891 
  917000    2814.0282   -93.890843   -100.07445   -100.07445    6.1836087 
  918000    2794.1088   -91.222118   -97.361955   -97.361955    6.1398375 
  919000    2793.5851   -92.296083    -98.43477    -98.43477    6.1386866 
  920000    2838.2751   -92.268823   -98.505713   -98.505713    6.2368895 
  921000    2755.7467   -92.447121   -98.502661   -98.502661    6.0555397 
  922000    2812.6509   -92.704686   -98.885269   -98.885269    6.1805823 
  923000    2819.8667   -93.573196   -99.769635   -99.769635    6.1964385 
  924000    2749.6269   -92.878869   -98.920961   -98.920961    6.0420918 
  925000    2884.7157   -91.179715   -97.518654   -97.518654    6.3389391 
  926000    2736.1911   -94.346245   -100.35881   -100.35881    6.0125677 
  927000    2817.6689   -92.248009   -98.439618   -98.439618     6.191609 
  928000    2708.9542   -91.147412   -97.100128   -97.100128    5.9527169 
  929000    2731.0615   -91.087552   -97.088848   -97.088848     6.001296 
  930000    2709.9168   -94.969705   -100.92454   -100.92454    5.9548321 
  931000    2912.4989   -91.709273   -98.109264   -98.109264    6.3999905 
  932000    2921.3878   -94.138169   -100.55769   -100.55769    6.4195231 
  933000    2906.9949   -91.394386   -97.782282   -97.782282    6.3878959 
  934000    2842.5149   -91.872119   -98.118325   -98.118325    6.2462061 
  935000    2827.2925   -91.481622   -97.694378   -97.694378    6.2127561 
  936000    2701.3021   -92.763152   -98.699054   -98.699054    5.9359019 
  937000    2797.9893   -92.755477   -98.903842   -98.903842    6.1483646 
  938000    2863.7535   -96.617744   -102.91062   -102.91062    6.2928762 
  939000    2720.4354   -93.555029   -99.532975   -99.532975    5.9779458 
  940000    2828.2042   -95.747524   -101.96228   -101.96228    6.2147594 
  941000    2764.0064   -93.177158   -99.250848   -99.250848    6.0736898 
  942000    2751.7864    -95.19476    -101.2416    -101.2416    6.0468372 
  943000    2771.8751   -92.952912   -99.043892   -99.043892    6.0909807 
  944000    2722.0292   -92.043984   -98.025432   -98.025432    5.9814481 
  945000    2878.9386   -94.292788   -100.61903   -100.61903    6.3262443 
  946000    2858.8108   -94.296434   -100.57845   -100.57845    6.2820152 
  947000    2875.3108   -91.503193   -97.821465   -97.821465    6.3182726 
  948000    2779.9363   -94.732497   -100.84119   -100.84119    6.1086944 
  949000    2849.7491   -94.148463   -100.41057   -100.41057    6.2621027 
  950000    2841.9242    -95.70466   -101.94957   -101.94957     6.244908 
  951000    2865.1508   -94.692097   -100.98804   -100.98804    6.2959467 
  952000    2877.0027   -92.416572   -98.738563   -98.738563    6.3219904 
  953000    2769.4019   -92.962998   -99.048544   -99.048544     6.085546 
  954000    2824.5409    -94.52308   -100.72979   -100.72979    6.2067097 
  955000    2906.3091   -95.832023   -102.21841   -102.21841     6.386389 
  956000    3029.7945    -95.32823   -101.98597   -101.98597    6.6577384 
  957000    2917.5958   -95.027659   -101.43885   -101.43885    6.4111906 
  958000    2896.0369   -93.440033    -99.80385    -99.80385    6.3638164 
  959000    2834.4597   -95.753407   -101.98191   -101.98191    6.2285054 
  960000    2807.4631   -92.570852   -98.740035   -98.740035    6.1691825 
  961000    2914.2162   -94.803523   -101.20729   -101.20729    6.4037641 
  962000    2830.3465   -96.040344   -102.25981   -102.25981     6.219467 
  963000    2779.8489   -93.568705   -99.677207   -99.677207    6.1085023 
  964000    3043.2059   -92.594168   -99.281377   -99.281377    6.6872091 
  965000     2897.443   -92.486176   -98.853082   -98.853082    6.3669064 
  966000    2778.7189   -93.066978   -99.172997   -99.172997    6.1060194 
  967000    3037.7892   -92.805391   -99.480698   -99.480698    6.6753062 
  968000    3026.1075   -91.650873    -98.30051    -98.30051    6.6496367 
  969000    2888.9627   -91.692498   -98.040769   -98.040769    6.3482716 
  970000    2812.6797   -89.649029   -95.829675   -95.829675    6.1806457 
  971000    2959.7237   -95.982001   -102.48576   -102.48576    6.5037634 
  972000    2987.4269   -95.235055   -101.79969   -101.79969     6.564639 
  973000    2828.2802   -90.653226   -96.868152   -96.868152    6.2149265 
  974000    2944.6985   -92.474925   -98.945672   -98.945672    6.4707466 
  975000    2831.3076   -93.903415   -100.12499   -100.12499    6.2215789 
  976000    3123.6933   -93.665202   -100.52928   -100.52928    6.8640739 
  977000    3081.8033   -91.131413   -97.903437   -97.903437    6.7720238 
  978000    2976.0153   -93.433392   -99.972955   -99.972955    6.5395629 
  979000    3080.1435    -95.79213   -102.56051   -102.56051    6.7683766 
  980000    2873.1443   -93.219632   -99.533143   -99.533143    6.3135118 
  981000    3001.4521   -91.615015   -98.210473   -98.210473    6.5954582 
  982000    2979.1107   -94.652855   -101.19922   -101.19922    6.5463647 
  983000    3025.4677   -94.292598   -100.94083   -100.94083    6.6482306 
  984000    2948.7059   -93.640263   -100.11982   -100.11982    6.4795526 
  985000    2951.9973   -94.608062   -101.09485   -101.09485    6.4867852 
  986000    3021.8709   -93.882197   -100.52252   -100.52252     6.640327 
  987000    2785.7607   -93.627942   -99.749435   -99.749435    6.1214932 
  988000    3338.2896   -92.908715   -100.24435   -100.24435    7.3356326 
  989000     3248.112   -91.996588   -99.134062   -99.134062    7.1374742 
  990000    3179.5421   -94.274968   -101.26176   -101.26176    6.9867973 
  991000    3056.4828   -93.093993   -99.810377   -99.810377    6.7163839 
  992000    3033.1533   -96.730944   -103.39606   -103.39606    6.6651192 
  993000    2873.2924     -93.0258   -99.339638   -99.339638    6.3138373 
  994000    3168.2931   -93.935995   -100.89807   -100.89807    6.9620784 
  995000    2903.1634   -95.499594   -101.87907   -101.87907    6.3794764 
  996000    3069.0639   -95.224309   -101.96834   -101.96834      6.74403 
  997000    3127.2761   -93.758206   -100.63015   -100.63015    6.8719467 
  998000     3157.381   -93.361174   -100.29927   -100.29927    6.9380999 
  999000    3012.7764   -91.811775   -98.432118   -98.432118    6.6203426 
 1000000    3000.6283   -92.594643   -99.188291   -99.188291     6.593648 
Loop time of 148.819 on 1 procs for 1000000 steps with 18 atoms

Performance: 58.057 ns/day, 0.413 hours/ns, 6719.571 timesteps/s
96.9% CPU use with 1 MPI tasks x 1 OpenMP threads

MPI task timing breakdown:
Section |  min time  |  avg time  |  max time  |%varavg| %total
---------------------------------------------------------------
Pair    | 118.4      | 118.4      | 118.4      |   0.0 | 79.56
Neigh   | 5.7842     | 5.7842     | 5.7842     |   0.0 |  3.89
Comm    | 3.7677     | 3.7677     | 3.7677     |   0.0 |  2.53
Output  | 4.5599     | 4.5599     | 4.5599     |   0.0 |  3.06
Modify  | 13.385     | 13.385     | 13.385     |   0.0 |  8.99
Other   |            | 2.926      |            |       |  1.97

Nlocal:        18.0000 ave          18 max          18 min
Histogram: 1 0 0 0 0 0 0 0 0 0
Nghost:        114.000 ave         114 max         114 min
Histogram: 1 0 0 0 0 0 0 0 0 0
Neighs:         0.00000 ave           0 max           0 min
Histogram: 1 0 0 0 0 0 0 0 0 0
FullNghs:      304.000 ave         304 max         304 min
Histogram: 1 0 0 0 0 0 0 0 0 0

Total # of neighbors = 304
Ave neighs/atom = 16.888889
Neighbor list builds = 23233
Dangerous builds = 2
write_restart 	./endconf/endconf*1.restart
System init for write_restart ...

#==============Constant Temp Phase==================

# Minimize during the constant temperature phase
min_style       sd
minimize        1.0e-5 1.0e-7 500 1000
Per MPI rank memory allocation (min/avg/max) = 6.265 | 6.265 | 6.265 Mbytes
Step Temp TotEng E_pair PotEng KinEng 
[...]
 1853000    749.75838   -104.24707   -105.89461   -105.89461    1.6475359 
 1854000     726.9912   -104.33434   -105.93185   -105.93185    1.5975068 
 1855000    731.47436   -104.33839   -105.94575   -105.94575    1.6073582 
 1856000    724.69858   -104.41551   -106.00798   -106.00798    1.5924689 
 1857000    712.30004   -104.23652   -105.80174   -105.80174    1.5652241 
 1858000    706.96052   -103.38032   -104.93381   -104.93381    1.5534909 
 1859000      723.424   -104.15752   -105.74719   -105.74719    1.5896682 
 1860000    701.89257   -103.95601   -105.49836   -105.49836    1.5423545 
 1861000    724.71613   -102.69055   -104.28306   -104.28306    1.5925075 
 1862000    726.47217   -103.45889   -105.05526   -105.05526    1.5963663 
 1863000    717.93591   -104.77752   -106.35513   -106.35513    1.5776085 
 1864000      702.395   -103.30431   -104.84777   -104.84777    1.5434585 
 1865000    724.19338   -103.99264     -105.584     -105.584    1.5913588 
 1866000    692.53239   -104.02379   -105.54557   -105.54557    1.5217862 
 1867000    708.04911   -104.40542   -105.96131   -105.96131     1.555883 
 1868000    683.39966   -102.15545   -103.65717   -103.65717    1.5017178 
 1869000    696.95502    -104.1921   -105.72361   -105.72361    1.5315046 
 1870000    714.89064   -104.08065   -105.65156   -105.65156    1.5709167 
 1871000    671.66749    -104.3224   -105.79833   -105.79833    1.4759372 
 1872000    684.69261   -103.24654    -104.7511    -104.7511    1.5045589 
 1873000    672.37488   -104.55519   -106.03269   -106.03269    1.4774917 
 1874000    679.71991   -103.68384   -105.17747   -105.17747    1.4936318 
 1875000    630.88447    -102.7826   -104.16892   -104.16892    1.3863197 
 1876000    678.54117   -104.01144   -105.50248   -105.50248    1.4910416 
 1877000    688.79154   -104.04444     -105.558     -105.558     1.513566 
 1878000    667.15071   -103.80318   -105.26919   -105.26919     1.466012 
 1879000    663.27561   -104.37245   -105.82995   -105.82995    1.4574967 
 1880000    646.41288   -104.32329   -105.74373   -105.74373    1.4204422 
 1881000     653.4066   -104.34962   -105.78543   -105.78543    1.4358103 
 1882000    641.53107   -104.49485   -105.90456   -105.90456    1.4097148 
 1883000    658.31441   -104.76332   -106.20991   -106.20991    1.4465949 
 1884000    641.99363   -104.76818   -106.17891   -106.17891    1.4107312 
 1885000    657.57176   -104.35759   -105.80256   -105.80256     1.444963 
 1886000    636.17493   -104.72514   -106.12309   -106.12309    1.3979451 
 1887000    629.58613   -103.35141   -104.73487   -104.73487    1.3834667 
 1888000    633.62762   -103.30627   -104.69862   -104.69862    1.3923476 
 1889000    634.39293   -103.34871   -104.74274   -104.74274    1.3940293 
 1890000    636.89316   -104.54629   -105.94581   -105.94581    1.3995233 
 1891000    616.56636   -104.35976   -105.71462   -105.71462    1.3548568 
 1892000    641.32425   -104.51714    -105.9264    -105.9264    1.4092603 
 1893000    620.86379   -104.82651   -106.19081   -106.19081       1.3643 
 1894000    626.30827    -104.0973   -105.47356   -105.47356    1.3762639 
 1895000    624.30848   -104.75177   -106.12364   -106.12364    1.3718695 
 1896000    611.93244   -104.50948   -105.85416   -105.85416    1.3446741 
 1897000    613.34491   -104.97752    -106.3253    -106.3253    1.3477779 
 1898000    605.78747   -104.32029   -105.65146   -105.65146     1.331171 
 1899000    626.07865   -104.28751   -105.66327   -105.66327    1.3757593 
 1900000    593.19542   -104.05944   -105.36295   -105.36295    1.3035009 
 1901000    592.34771   -104.65833   -105.95997   -105.95997    1.3016382 
 1902000     583.7047   -103.93698   -105.21962   -105.21962    1.2826458 
 1903000     616.0067   -103.21818   -104.57181   -104.57181     1.353627 
 1904000    581.26396   -104.46698   -105.74426   -105.74426    1.2772825 
 1905000    603.17051   -104.02797   -105.35339   -105.35339    1.3254204 
 1906000    603.79281   -104.62413   -105.95092   -105.95092    1.3267879 
 1907000    566.32738   -104.48174    -105.7262    -105.7262    1.2444605 
 1908000    591.57967    -104.4958   -105.79575   -105.79575    1.2999505 
 1909000    581.29505   -104.63501   -105.91236   -105.91236    1.2773508 
 1910000    561.74567    -104.3129   -105.54729   -105.54729    1.2343926 
 1911000    557.07315   -104.92543   -106.14956   -106.14956    1.2241251 
 1912000     574.0284   -104.51939   -105.78077   -105.78077    1.2613829 
 1913000    557.25494    -104.9178   -106.14233   -106.14233    1.2245245 
 1914000     548.4047   -104.49066   -105.69573   -105.69573    1.2050768 
 1915000    557.44975   -105.10402   -106.32897   -106.32897    1.2249526 
 1916000     552.7213   -104.26037   -105.47493   -105.47493    1.2145622 
 1917000     542.8633   -104.79122   -105.98412   -105.98412       1.1929 
 1918000    513.09634   -104.21086   -105.33835   -105.33835    1.1274894 
 1919000    532.27716   -104.60278   -105.77242   -105.77242    1.1696378 
 1920000    545.64547   -105.18731   -106.38632   -106.38632    1.1990136 
 1921000    547.24235   -104.52816   -105.73069   -105.73069    1.2025226 
 1922000    527.14875   -104.23151   -105.38988   -105.38988    1.1583685 
 1923000    538.62693    -104.7614   -105.94499   -105.94499    1.1835909 
 1924000    538.58781   -103.85527   -105.03877   -105.03877     1.183505 
 1925000    516.88474   -104.99543   -106.13124   -106.13124    1.1358141 
 1926000    511.56033   -105.04267   -106.16679   -106.16679    1.1241142 
 1927000    525.88957   -104.86626   -106.02186   -106.02186    1.1556016 
 1928000    517.82342   -105.39918   -106.53706   -106.53706    1.1378768 
 1929000    524.68224   -104.83355    -105.9865    -105.9865    1.1529485 
 1930000    511.68866   -104.94037   -106.06476   -106.06476    1.1243961 
 1931000    509.34847   -105.19141   -106.31066   -106.31066    1.1192538 
 1932000    499.14941   -105.25284   -106.34969   -106.34969    1.0968421 
 1933000    496.82925   -105.10273   -106.19448   -106.19448    1.0917438 
 1934000    509.93563   -104.65333   -105.77387   -105.77387     1.120544 
 1935000    497.75917   -105.01708   -106.11086   -106.11086    1.0937872 
 1936000    486.73557   -104.69573    -105.7653    -105.7653    1.0695637 
 1937000    496.25599    -104.9753   -106.06578   -106.06578    1.0904841 
 1938000    494.06116   -105.33832   -106.42398   -106.42398    1.0856611 
 1939000     467.4441    -104.9307   -105.95788   -105.95788    1.0271722 
 1940000    481.31129   -104.94122   -105.99887   -105.99887    1.0576442 
 1941000    474.52982   -104.68741   -105.73015   -105.73015    1.0427425 
 1942000     475.4168   -104.67542   -105.72011   -105.72011    1.0446916 
 1943000    487.59362   -104.37284   -105.44429   -105.44429    1.0714492 
 1944000    466.71359    -105.0907   -106.11626   -106.11626    1.0255669 
 1945000    465.68902   -105.28015   -106.30347   -106.30347    1.0233155 
 1946000    462.00281   -105.00689    -106.0221    -106.0221    1.0152154 
 1947000    463.60783   -104.90446    -105.9232    -105.9232    1.0187423 
 1948000    461.89588    -105.0701   -106.08509   -106.08509    1.0149804 
 1949000    450.54155   -104.74711   -105.73714   -105.73714   0.99003013 
 1950000     456.6064   -104.79733   -105.80068   -105.80068    1.0033572 
 1951000     446.8656   -105.22606   -106.20801   -106.20801    0.9819525 
 1952000    434.76456   -104.78339   -105.73875   -105.73875   0.95536141 
 1953000    440.31303   -104.77934   -105.74689   -105.74689   0.96755374 
 1954000    444.17854   -105.37315    -106.3492    -106.3492    0.9760479 
 1955000    436.48658   -105.50723   -106.46638   -106.46638   0.95914542 
 1956000    431.35123   -105.26931   -106.21717   -106.21717   0.94786089 
 1957000    434.89771   -104.93273   -105.88838   -105.88838     0.955654 
 1958000     424.5128   -105.28519   -106.21802   -106.21802   0.93283396 
 1959000    429.39085   -105.66282   -106.60637   -106.60637   0.94355309 
 1960000    421.20173   -105.30661   -106.23216   -106.23216   0.92555814 
 1961000    414.12249    -105.0692    -105.9792    -105.9792   0.91000206 
 1962000    417.48941    -105.5116     -106.429     -106.429   0.91740061 
 1963000    408.65009   -104.92963    -105.8276    -105.8276    0.8979769 
 1964000    417.88042   -105.21089   -106.12915   -106.12915   0.91825982 
 1965000    405.31477    -105.4708   -106.36144   -106.36144   0.89064779 
 1966000    400.42112   -105.03385   -105.91375   -105.91375   0.87989435 
 1967000    399.42516   -105.55786   -106.43557   -106.43557   0.87770583 
 1968000    393.31089   -104.77415   -105.63842   -105.63842   0.86427019 
 1969000    398.32548   -104.36852   -105.24381   -105.24381   0.87528935 
 1970000    383.87642   -105.17484   -106.01838   -106.01838   0.84353866 
 1971000     382.4283   -105.39979   -106.24015   -106.24015   0.84035654 
 1972000    381.49813   -105.45138    -106.2897    -106.2897   0.83831256 
 1973000    383.30724   -105.67082   -106.51311   -106.51311   0.84228794 
 1974000    386.04486   -105.05989   -105.90819   -105.90819   0.84830364 
 1975000    377.50741   -105.72651   -106.55606   -106.55606   0.82954327 
 1976000    377.08209   -105.33536   -106.16397   -106.16397   0.82860866 
 1977000    362.32197   -105.39978   -106.19596   -106.19596   0.79617444 
 1978000     358.0825   -105.72102   -106.50788   -106.50788   0.78685852 
 1979000    360.97883   -105.35589   -106.14912   -106.14912   0.79322299 
 1980000    369.24439   -105.68261   -106.49399   -106.49399   0.81138593 
 1981000    354.23935   -105.86049    -106.6389    -106.6389    0.7784135 
 1982000    355.13702   -105.43983   -106.22021   -106.22021   0.78038608 
 1983000    350.07458   -105.57147   -106.34073   -106.34073   0.76926175 
 1984000     341.8905   -105.44682    -106.1981    -106.1981   0.75127786 
 1985000    349.11265   -105.33439   -106.10154   -106.10154   0.76714797 
 1986000    338.21663   -105.63205   -106.37526   -106.37526   0.74320481 
 1987000    343.55936   -105.52376   -106.27871   -106.27871   0.75494505 
 1988000    330.74995   -105.57349   -106.30029   -106.30029   0.72679737 
 1989000    333.68296   -105.74389   -106.47714   -106.47714   0.73324243 
 1990000    334.82598   -105.67071   -106.40647   -106.40647   0.73575412 
 1991000    327.72593   -105.52489   -106.24504   -106.24504   0.72015231 
 1992000    328.66585   -105.40567   -106.12788   -106.12788   0.72221772 
 1993000    318.46235   -105.33052   -106.03031   -106.03031   0.69979633 
 1994000    314.12023   -105.46413   -106.15439   -106.15439   0.69025485 
 1995000    318.33963   -105.50251   -106.20204   -106.20204   0.69952665 
 1996000    311.57563   -105.95978   -106.64444   -106.64444   0.68466328 
 1997000    302.98662   -105.55109   -106.21688   -106.21688   0.66578962 
 1998000    310.47971     -105.791   -106.47325   -106.47325   0.68225509 
 1999000    306.52486   -105.68833    -106.3619    -106.3619    0.6735646 
 2000000    302.05028   -104.86338   -105.52712   -105.52712   0.66373208 
 2001000    300.03771   -105.61705   -106.27636   -106.27636    0.6593096 
 2002000     287.1206   -105.75209   -106.38301   -106.38301   0.63092526 
 2003000    288.19108   -105.25427   -105.88754   -105.88754   0.63327756 
 2004000    283.13955   -105.40349   -106.02566   -106.02566   0.62217722 
 2005000     283.9394   -105.58244   -106.20638   -106.20638   0.62393481 
 2006000    285.50754   -105.44248   -106.06986   -106.06986   0.62738068 
 2007000    282.97744   -105.76471   -106.38653   -106.38653   0.62182098 
 2008000    272.59684   -105.86595   -106.46496   -106.46496   0.59901043 
 2009000    268.69877   -105.60652   -106.19696   -106.19696   0.59044471 
 2010000    271.01854   -105.85128   -106.44682   -106.44682   0.59554222 
 2011000    273.31469   -105.95049   -106.55108   -106.55108   0.60058783 
 2012000    267.81888   -105.89752   -106.48604   -106.48604   0.58851122 
 2013000    265.35573   -105.60398   -106.18707   -106.18707   0.58309864 
 2014000     261.9838   -106.13586   -106.71155   -106.71155    0.5756891 
 2015000     261.6992   -105.67277   -106.24783   -106.24783    0.5750637 
 2016000    249.38508   -105.94607   -106.49407   -106.49407   0.54800438 
 2017000    250.41472   -105.91138   -106.46165   -106.46165   0.55026692 
 2018000    251.05606   -105.89711   -106.44878   -106.44878   0.55167624 
 2019000    249.30669   -105.86802   -106.41585   -106.41585   0.54783211 
 2020000    243.45488    -106.0219   -106.55687   -106.55687   0.53497322 
 2021000     236.1282    -105.9561   -106.47497   -106.47497   0.51887341 
 2022000    234.13634   -105.88606   -106.40056   -106.40056   0.51449645 
 2023000    227.12822   -105.97555   -106.47465   -106.47465   0.49909664 
 2024000    230.13629   -105.56984   -106.07555   -106.07555   0.50570666 
 2025000    224.56514   -105.88916   -106.38262   -106.38262   0.49346448 
 2026000    224.86835   -105.88839   -106.38253   -106.38253   0.49413075 
 2027000    228.44751   -105.88026   -106.38226   -106.38226   0.50199569 
 2028000    221.18108    -106.0322   -106.51823   -106.51823   0.48602827 
 2029000    214.64915   -106.06942    -106.5411    -106.5411   0.47167488 
 2030000    204.03084    -105.8644   -106.31275   -106.31275   0.44834194 
 2031000     208.6219   -106.30693   -106.76536   -106.76536   0.45843046 
 2032000    203.99967    -106.2286   -106.67687   -106.67687   0.44827347 
 2033000    197.25386   -106.11948   -106.55293   -106.55293   0.43345006 
 2034000    195.84431   -106.10782   -106.53817   -106.53817   0.43035268 
 2035000    192.76226   -106.09994   -106.52352   -106.52352   0.42358013 
 2036000    190.69269   -105.86632   -106.28535   -106.28535    0.4190324 
 2037000    190.62859   -106.09991    -106.5188    -106.5188   0.41889154 
 2038000    187.16382   -106.36451   -106.77579   -106.77579   0.41127797 
 2039000     183.1971   -106.03716   -106.43972   -106.43972   0.40256143 
 2040000    179.28506   -106.21634    -106.6103    -106.6103   0.39396502 
 2041000    174.54346    -106.3159   -106.69945   -106.69945   0.38354573 
 2042000    176.10003   -106.12566   -106.51263   -106.51263   0.38696615 
 2043000    171.19298   -106.32403   -106.70021   -106.70021   0.37618331 
 2044000    167.99693   -106.19731   -106.56647   -106.56647   0.36916022 
 2045000    160.69513   -106.13457   -106.48768   -106.48768    0.3531151 
 2046000    163.80372   -106.36127   -106.72122   -106.72122   0.35994596 
 2047000    161.25607   -106.38741   -106.74176   -106.74176    0.3543477 
 2048000    158.47445   -106.24063   -106.58886   -106.58886   0.34823533 
 2049000    152.47135   -106.34456    -106.6796    -106.6796   0.33504396 
 2050000    151.74496   -106.28713   -106.62058   -106.62058   0.33344778 
 2051000    145.85371   -106.25765   -106.57815   -106.57815   0.32050222 
 2052000    146.11572   -106.40673   -106.72781   -106.72781   0.32107796 
 2053000    139.77277   -106.37811   -106.68525   -106.68525   0.30713984 
 2054000    141.56533   -106.26033   -106.57141   -106.57141   0.31107884 
 2055000    137.14867   -106.44342    -106.7448    -106.7448   0.30137356 
 2056000    130.78905   -106.43511   -106.72251   -106.72251    0.2873988 
 2057000    130.42052   -106.35587   -106.64246   -106.64246   0.28658897 
 2058000    128.00781    -106.4118   -106.69309   -106.69309   0.28128724 
 2059000    122.82089    -106.5603   -106.83019   -106.83019   0.26988939 
 2060000    116.63358   -106.34834   -106.60463   -106.60463   0.25629324 
 2061000    119.76665   -106.35694   -106.62012   -106.62012   0.26317792 
 2062000    113.15299   -106.55268   -106.80133   -106.80133   0.24864491 
 2063000    108.00479   -106.41423   -106.65156   -106.65156   0.23733216 
 2064000    111.12086   -106.37526   -106.61944   -106.61944   0.24417948 
 2065000    105.29671   -106.67675   -106.90813   -106.90813   0.23138137 
 2066000     99.09952   -106.53394   -106.75171   -106.75171   0.21776351 
 2067000     100.2288   -106.52696   -106.74721   -106.74721   0.22024501 
 2068000    96.151741   -106.66554   -106.87682   -106.87682   0.21128599 
 2069000    92.186979      -106.53   -106.73257   -106.73257   0.20257374 
 2070000    89.706454   -106.52274   -106.71986   -106.71986   0.19712298 
 2071000    88.098147   -106.65375   -106.84734   -106.84734   0.19358885 
 2072000    84.459763    -106.6313   -106.81689   -106.81689   0.18559378 
 2073000    79.594829   -106.56443   -106.73933   -106.73933   0.17490346 
 2074000    78.905632   -106.72549   -106.89888   -106.89888   0.17338901 
 2075000    74.478192   -106.67251   -106.83617   -106.83617   0.16366005 
 2076000    72.453186   -106.62759    -106.7868    -106.7868   0.15921026 
 2077000    67.758687   -106.75159   -106.90049   -106.90049   0.14889446 
 2078000    66.539284   -106.61554   -106.76176   -106.76176   0.14621492 
 2079000    63.831169   -106.65864   -106.79891   -106.79891   0.14026405 
 2080000    59.825691   -106.76798   -106.89944   -106.89944   0.13146232 
 2081000    58.817373    -106.6615   -106.79075   -106.79075   0.12924662 
 2082000     53.59226   -106.81214    -106.9299    -106.9299   0.11776484 
 2083000     50.64334   -106.77878   -106.89006   -106.89006   0.11128481 
 2084000    47.884613   -106.73826   -106.84349   -106.84349   0.10522272 
 2085000    45.591879   -106.83617   -106.93635   -106.93635   0.10018462 
 2086000    42.578297   -106.81021   -106.90377   -106.90377  0.093562506 
 2087000    39.604594   -106.79146   -106.87849   -106.87849  0.087028023 
 2088000    36.444934   -106.85154   -106.93163   -106.93163  0.080084916 
 2089000    33.081912   -106.85424   -106.92694   -106.92694  0.072694937 
 2090000    30.729857   -106.83925   -106.90678   -106.90678  0.067526478 
 2091000    27.042774    -106.8878   -106.94722   -106.94722    0.0594244 
 2092000    24.616758   -106.91071   -106.96481   -106.96481  0.054093417 
 2093000    21.309992    -106.8762   -106.92303   -106.92303  0.046827055 
 2094000    18.456599   -106.90942   -106.94998   -106.94998  0.040556944 
 2095000     15.33929   -106.94099    -106.9747    -106.9747    0.0337069 
 2096000     12.44662   -106.89759   -106.92494   -106.92494  0.027350482 
 2097000    9.5118971   -106.96551   -106.98641   -106.98641  0.020901656 
 2098000    6.3611021   -106.96724   -106.98122   -106.98122  0.013978029 
 2099000    3.5471951   -106.97904   -106.98683   -106.98683 0.0077946862 
 2100000    0.4597862   -106.99593   -106.99694   -106.99694 0.0010103445 
 2100141  0.030853038   -106.99716   -106.99723   -106.99723 6.7797158e-05 
Loop time of 135.361 on 1 procs for 1000000 steps with 18 atoms

Performance: 63.829 ns/day, 0.376 hours/ns, 7387.671 timesteps/s
96.6% CPU use with 1 MPI tasks x 1 OpenMP threads

MPI task timing breakdown:
Section |  min time  |  avg time  |  max time  |%varavg| %total
---------------------------------------------------------------
Pair    | 103.47     | 103.47     | 103.47     |   0.0 | 76.44
Neigh   | 7.3129     | 7.3129     | 7.3129     |   0.0 |  5.40
Comm    | 4.6767     | 4.6767     | 4.6767     |   0.0 |  3.45
Output  | 4.6848     | 4.6848     | 4.6848     |   0.0 |  3.46
Modify  | 12.442     | 12.442     | 12.442     |   0.0 |  9.19
Other   |            | 2.777      |            |       |  2.05

Nlocal:        18.0000 ave          18 max          18 min
Histogram: 1 0 0 0 0 0 0 0 0 0
Nghost:        114.000 ave         114 max         114 min
Histogram: 1 0 0 0 0 0 0 0 0 0
Neighs:         0.00000 ave           0 max           0 min
Histogram: 1 0 0 0 0 0 0 0 0 0
FullNghs:      296.000 ave         296 max         296 min
Histogram: 1 0 0 0 0 0 0 0 0 0

Total # of neighbors = 296
Ave neighs/atom = 16.444444
Neighbor list builds = 18115
Dangerous builds = 0
write_restart 	./endconf/endconf*3.restart
System init for write_restart ...

Total wall time: 0:04:59
