LAMMPS (7 Feb 2024 - Update 1)
OMP_NUM_THREADS environment is not set. Defaulting to 1 thread. (src/comm.cpp:98)
  using 1 OpenMP thread(s) per MPI task
#============Initialization=================
units 			metal
atom_style 		atomic
boundary 		p p p


#=========Simulation box definition=========
region 			bigbox block 0 10 0 10 0 10
create_box 		1 bigbox
Created orthogonal box = (0 0 0) to (10 10 10)
  1 by 1 by 1 MPI processor grid

#==================Atoms====================
create_atoms 	1 random 2 12345 bigbox
Created 2 atoms
  using lattice units in orthogonal box = (0 0 0) to (10 10 10)
  create_atoms CPU = 0.001 seconds
labelmap 		atom 1 C
mass 			* 12.0107

#==========Velocity initialization==========
velocity 		all create 0.001 12345 rot yes dist gaussian

#======Pair style for atom interactions=============
pair_style 		airebo 2.5
pair_coeff 		* * CH.airebo C
Reading airebo potential file CH.airebo with DATE: 2011-10-25

#==============Neighbor selection===================
neighbor 		0.3 bin
neigh_modify 	every 2 delay 10 check yes

#====Fixes for time integration and constraints=====
fix 			1 all nve
fix 			2 all temp/berendsen 300.0 3000.0 0.1

#=====================Timestep======================
timestep 		0.0001

#========System temperature printing info===========
thermo_style 	custom step temp etotal pe
thermo 			500

#===============Define dump command=================
dump 			1 all cfg 100 ./dump/dump.tensile_*.cfg mass type xs ys zs vx vy vz id

#================Run simulation=====================
run 			50000
Neighbor list info ...
  update: every = 2 steps, delay = 10 steps, check = yes
  max neighbors/atom: 2000, page size: 100000
  master list distance cutoff = 8.8
  ghost atom cutoff = 8.8
  binsize = 4.4, bins = 3 3 3
  1 neighbor lists, perpetual/occasional/extra = 1 0 0
  (1) pair airebo, perpetual
      attributes: full, newton on, ghost
      pair build: full/bin/ghost
      stencil: full/ghost/bin/3d
      bin: standard
Per MPI rank memory allocation (min/avg/max) = 3.877 | 3.877 | 3.877 Mbytes
   Step          Temp          TotEng         PotEng    
         0   0.001         -0.0028237809  -0.0028239102 
       500   122.00848      0.013235918   -0.002534915  
      1000   205.54707      0.024510901   -0.0020581434 
      1500   266.99996      0.032909509   -0.0016029447 
      2000   315.5702       0.039532574   -0.0012580768 
      2500   356.27068      0.045034908   -0.0010166922 
      3000   392.06888      0.049793534   -0.00088534644
      3500   424.72968      0.05412043    -0.00078018991
      4000   455.41117      0.058121691   -0.00074482215
      4500   485.14792      0.061950656   -0.00075963427
      5000   515.20327      0.065630077   -0.00096517287
      5500   547.05924      0.069032746   -0.0016802112 
      6000   580.24938      0.072040084   -0.0029630347 
      6500   587.18713      0.075793497   -0.00010639691
      7000   617.83477      0.079824518   -3.6893809e-05
      7500   41619.871     -0.69107857    -6.0708691    
      8000   5954.9255     -2.0316539     -2.8013884    
      8500   1084.8478     -2.9960236     -3.1362512    
      9000   6033.7805     -3.7329826     -4.51291      
      9500   3022.4984     -4.2004609     -4.5911495    
     10000   2437.2885     -4.5583039     -4.8733482    
     10500   4587.3438     -4.8428725     -5.4358332    
     11000   8651.49       -5.087295      -6.2055879    
     11500   526.11283     -5.2726461     -5.3406515    
     12000   4422.6772     -5.4300291     -6.001705     
     12500   361.7148      -5.5333386     -5.5800939    
     13000   3819.4326     -5.6303811     -6.1240815    
     13500   3918.9041     -5.7014113     -6.2079694    
     14000   420.75565     -5.7526844     -5.8070714    
     14500   1209.3009     -5.8008434     -5.9571579    
     15000   1935.2328     -5.8362141     -6.0863625    
     15500   2040.9319     -5.855734      -6.1195451    
     16000   1537.3555     -5.8775208     -6.0762396    
     16500   360.29569     -5.8946222     -5.9411941    
     17000   1307.1077     -5.9083902     -6.0773471    
     17500   1563.4353     -5.9188628     -6.1209526    
     18000   2046.0908     -5.9221091     -6.1865871    
     18500   1954.5224     -5.9286421     -6.181284     
     19000   784.03818     -5.9318795     -6.0332244    
     19500   795.00461     -5.9365695     -6.0393319    
     20000   911.09627     -5.9401888     -6.0579573    
     20500   1949.2777     -5.940749      -6.1927129    
     21000   1955.6336     -5.9425964     -6.1953819    
     21500   1681.7358     -5.9401061     -6.1574875    
     22000   1625.3941     -5.9412335     -6.1513322    
     22500   918.82311     -5.9409508     -6.059718     
     23000   1192.1037     -5.9414644     -6.0955559    
     23500   1269.2863     -5.9417137     -6.1057818    
     24000   2056.7245     -5.9393021     -6.2051546    
     24500   2059.1954     -5.9390103     -6.2051822    
     25000   1714.2507     -5.935201      -6.1567853    
     25500   1696.9899     -5.9346896     -6.1540428    
     26000   1149.0816     -5.9330628     -6.0815932    
     26500   1495.8505     -5.932042      -6.1253959    
     27000   1523.8257     -5.9310985     -6.1280684    
     27500   2171.5228     -5.9276043     -6.2082957    
     28000   2177.9523     -5.9264761     -6.2079986    
     28500   1817.9444     -5.9221656     -6.1571534    
     29000   1831.5982     -5.9209429     -6.1576956    
     29500   1369.7974     -5.918733      -6.0957933    
     30000   1779.8053     -5.9168945     -6.1469524    
     30500   1782.5725     -5.9154        -6.1458156    
     31000   2310.0217     -5.9112427     -6.2098364    
     31500   2321.2768     -5.9097155     -6.209764     
     32000   1903.4041     -5.905276      -6.1513103    
     32500   1954.7279     -5.9036756     -6.156344     
     33000   1587.4672     -5.9013052     -6.1065014    
     33500   2089.0781     -5.8987957     -6.1688302    
     34000   2084.3905     -5.8970321     -6.1664607    
     34500   2433.2085     -5.8923121     -6.206829     
     35000   2453.1023     -5.8905782     -6.2076665    
     35500   1951.3494     -5.8863541     -6.1385858    
     36000   2083.0064     -5.8844712     -6.1537209    
     36500   1844.7294     -5.8821888     -6.1206387    
     37000   2430.8518     -5.8788572     -6.1930694    
     37500   2427.9663     -5.8769761     -6.1908153    
     38000   2475.897      -5.8718787     -6.1919136    
     38500   2513.0776     -5.8700205     -6.1948613    
     39000   1998.4349     -5.8664005     -6.1247184    
     39500   2307.5096     -5.8640839     -6.1623529    
     40000   2206.083      -5.8619587     -6.1471173    
     40500   2722.5214     -5.8575624     -6.2094759    
     41000   2732.8724     -5.8556432     -6.2088947    
     41500   2403.4054     -5.8507497     -6.1614143    
     42000   2510.1696     -5.8487383     -6.1732032    
     42500   2162.0955     -5.8459411     -6.1254139    
     43000   2698.7159     -5.8426555     -6.1914919    
     43500   2676.9261     -5.8406349     -6.1866547    
     44000   2785.9168     -5.8354199     -6.1955279    
     44500   2830.9324     -5.8334602     -6.1993869    
     45000   2336.0745     -5.8296387     -6.1316       
     45500   2689.2109     -5.827076      -6.1746838    
     46000   2581.2807     -5.8248614     -6.1585181    
     46500   3011.3537     -5.8200869     -6.2093349    
     47000   3030.2522     -5.8181163     -6.2098071    
     47500   2615.4201     -5.8134139     -6.1514835    
     48000   2818.514      -5.8111807     -6.1755022    
     48500   2571.5004     -5.8086095     -6.141002     
     49000   3115.9707     -5.8044773     -6.2072481    
     49500   3113.4416     -5.8024712     -6.2049151    
     50000   2894.1945     -5.7972875     -6.1713915    
Loop time of 2.13116 on 1 procs for 50000 steps with 2 atoms

Performance: 202.706 ns/day, 0.118 hours/ns, 23461.383 timesteps/s, 46.923 katom-step/s
7.7% CPU use with 1 MPI tasks x 1 OpenMP threads

MPI task timing breakdown:
Section |  min time  |  avg time  |  max time  |%varavg| %total
---------------------------------------------------------------
Pair    | 0.048547   | 0.048547   | 0.048547   |   0.0 |  2.28
Neigh   | 0.011091   | 0.011091   | 0.011091   |   0.0 |  0.52
Comm    | 0.01749    | 0.01749    | 0.01749    |   0.0 |  0.82
Output  | 2.0244     | 2.0244     | 2.0244     |   0.0 | 94.99
Modify  | 0.014799   | 0.014799   | 0.014799   |   0.0 |  0.69
Other   |            | 0.01486    |            |       |  0.70

Nlocal:              2 ave           2 max           2 min
Histogram: 1 0 0 0 0 0 0 0 0 0
Nghost:             34 ave          34 max          34 min
Histogram: 1 0 0 0 0 0 0 0 0 0
Neighs:              0 ave           0 max           0 min
Histogram: 1 0 0 0 0 0 0 0 0 0
FullNghs:            2 ave           2 max           2 min
Histogram: 1 0 0 0 0 0 0 0 0 0

Total # of neighbors = 2
Ave neighs/atom = 1
Neighbor list builds = 408
Dangerous builds = 0
Total wall time: 0:00:02
