LAMMPS (7 Feb 2024 - Update 1)
OMP_NUM_THREADS environment is not set. Defaulting to 1 thread. (src/comm.cpp:98)
  using 1 OpenMP thread(s) per MPI task
#============Initialization=================
units 			metal
atom_style 		atomic
boundary 		p p p

############################################
#              CLI Variables               #
############################################
variable 		seed index 200093          #
variable 		N index 2                  #
variable 		iter index 1000000         #
variable 		iterther index 100000      #
variable 		iexport index 1000         #
variable 		tempchauf index 3000       #
variable 		Tdamp index 0.001          #
variable 		timestep index 0.0001      #
variable 		box_size index 10		   #
############################################
############################################
#=========Simulation box definition=========
lattice 		sc 1.0
Lattice spacing in x,y,z = 1 1 1
region 			bigbox block 0 ${box_size} 0 ${box_size} 0 ${box_size}
region 			bigbox block 0 10 0 ${box_size} 0 ${box_size}
region 			bigbox block 0 10 0 10 0 ${box_size}
region 			bigbox block 0 10 0 10 0 10
create_box 		1 bigbox
Created orthogonal box = (0 0 0) to (10 10 10)
  1 by 1 by 1 MPI processor grid

#==================Atoms====================
region 			safezone block 6 9 6 9 6 9 units box
create_atoms 	1 random ${N} ${seed} safezone
create_atoms 	1 random 2 ${seed} safezone
create_atoms 	1 random 2 200093 safezone
Created 2 atoms
  using lattice units in orthogonal box = (0 0 0) to (10 10 10)
  create_atoms CPU = 0.000 seconds
labelmap 		atom 1 C
mass 			* 12.01



#==========Velocity initialization==========
velocity 		all create 0.0000001 1563967 rot yes dist gaussian

#======Pair style for atom interactions=============
pair_style 		airebo 1.8 1 1
pair_coeff 		* * CH.airebo C
Reading airebo potential file CH.airebo with DATE: 2011-10-25

#==============Neighbor selection===================
neighbor 		0.3 bin
neigh_modify 	every 1 delay 0 check yes



#==============Custom Wall force====================
#==========Wall with harmonic potential=============
#variable       k equal 10.0

#fix             xlo_wall all wall/harmonic xlo EDGE v_k 1.0 0.7
#fix             xhi_wall all wall/harmonic xhi EDGE v_k 1.0 0.7
#fix             ylo_wall all wall/harmonic ylo EDGE v_k 1.0 0.7
#fix             yhi_wall all wall/harmonic yhi EDGE v_k 1.0 0.7
#fix             zlo_wall all wall/harmonic zlo EDGE v_k 1.0 0.7
#fix             zhi_wall all wall/harmonic zhi EDGE v_k 1.0 0.7



#=====================Timestep======================
timestep 		${timestep}
timestep 		0.0001

#===============Define dump command=================
dump 			1 all cfg 100000 ./dump/dump.tensile_*.cfg mass type xs ys zs vx vy vz id

#========System temperature printing info===========
thermo_style 	custom step temp etotal epair pe ke
thermo 			${iexport}	# 1'000'000
thermo 			1000	



#====================CRC Cycle======================

#=============Condensation et chauffe===============

# Minimize during the heating phase
#min_style       sd
#minimize        1.0e-5 1.0e-7 500 1000

fix 			1 all nve
fix 			2 all temp/berendsen 0.0 ${tempchauf} ${Tdamp}
fix 			2 all temp/berendsen 0.0 3000 ${Tdamp}
fix 			2 all temp/berendsen 0.0 3000 0.001
fix             3 all momentum 1 linear 1 1 1 angular rescale

run 			${iter}
run 			1000000
Neighbor list info ...
  update: every = 1 steps, delay = 0 steps, check = yes
  max neighbors/atom: 2000, page size: 100000
  master list distance cutoff = 8.116371
  ghost atom cutoff = 8.116371
  binsize = 4.0581855, bins = 3 3 3
  1 neighbor lists, perpetual/occasional/extra = 1 0 0
  (1) pair airebo, perpetual
      attributes: full, newton on, ghost
      pair build: full/bin/ghost
      stencil: full/ghost/bin/3d
      bin: standard
Per MPI rank memory allocation (min/avg/max) = 3.877 | 3.877 | 3.877 Mbytes
   Step          Temp          TotEng         E_pair         PotEng         KinEng    
         0   1e-07          1.2926015e-11  0              0              1.2926015e-11
      1000   2.973          0.00038429041  0              0              0.00038429041
      2000   5.973          0.00077207085  0              0              0.00077207085
      3000   8.973          0.0011598513   0              0              0.0011598513 
      4000   11.973         0.0015476317   0              0              0.0015476317 
      5000   14.973         0.0019354122   0              0              0.0019354122 
      6000   17.973         0.0023231926   0              0              0.0023231926 
      7000   21.104258      0.0024289427  -0.00029899671 -0.00029899671  0.0027279394 
      8000   23.975338      0.00025538652 -0.0028436691  -0.0028436691   0.0030990556 
      9000   26.927488      0.0010700809  -0.0024105701  -0.0024105701   0.003480651  
     10000   29.929022      0.0021247455  -0.0017438843  -0.0017438843   0.0038686297 
     11000   32.940062      0.0030670252  -0.001190812   -0.001190812    0.0042578372 
     12000   35.950348      0.0038510018  -0.0007959454  -0.0007959454   0.0046469472 
     13000   38.957931      0.0045063465  -0.00052936129 -0.00052936129  0.0050357078 
     14000   41.963087      0.0050709816  -0.00035317308 -0.00035317308  0.0054241547 
     15000   44.973         0.0058132165   0              0              0.0058132165 
     16000   47.973         0.0062009969   0              0              0.0062009969 
     17000   50.973         0.0065887774   0              0              0.0065887774 
     18000   53.973         0.0069765578   0              0              0.0069765578 
     19000   56.973         0.0073643382   0              0              0.0073643382 
     20000   59.973         0.0077521187   0              0              0.0077521187 
     21000   62.973         0.0081398991   0              0              0.0081398991 
     22000   65.973         0.0085276795   0              0              0.0085276795 
     23000   68.973         0.00891546     0              0              0.00891546   
     24000   71.973         0.0093032404   0              0              0.0093032404 
     25000   74.973         0.0096910209   0              0              0.0096910209 
     26000   77.985646      0.0096923684  -0.00038806755 -0.00038806755  0.010080436  
     27000   80.994268      0.0098417913  -0.00062753949 -0.00062753949  0.010469331  
     28000   84.007897      0.009832532   -0.0010263409  -0.0010263409   0.010858873  
     29000   87.024718      0.0095972611  -0.0016515666  -0.0016515666   0.011248828  
     30000   90.02655       0.0091867517  -0.0024500932  -0.0024500932   0.011636845  
     31000   92.83392       0.0093567546  -0.0026429714  -0.0026429714   0.011999726  
     32000   95.933065      0.012363001   -3.7320811e-05 -3.7320811e-05  0.012400322  
     33000   98.973         0.012793264    0              0              0.012793264  
     34000   101.973        0.013181045    0              0              0.013181045  
     35000   104.973        0.013568825    0              0              0.013568825  
     36000   107.973        0.013956606    0              0              0.013956606  
     37000   111.24653      0.012779903   -0.0015998402  -0.0015998402   0.014379743  
     38000   113.93399      0.011765543   -0.0029615817  -0.0029615817   0.014727125  
     39000   116.93124      0.0128214     -0.0022931485  -0.0022931485   0.015114548  
     40000   119.96343      0.0135858     -0.0019206907  -0.0019206907   0.01550649   
     41000   122.99168      0.013893355   -0.002004568   -0.002004568    0.015897923  
     42000   126.01445      0.014210602   -0.0020780441  -0.0020780441   0.016288646  
     43000   128.99733      0.014109787   -0.0025644267  -0.0025644267   0.016674213  
     44000   131.97833      0.014295986   -0.0027635516  -0.0027635516   0.017059538  
     45000   134.96615      0.014692668   -0.0027530763  -0.0027530763   0.017445744  
     46000   137.94495      0.01531986    -0.0025109239  -0.0025109239   0.017830784  
     47000   140.92774      0.01625485    -0.0019614894  -0.0019614894   0.01821634   
     48000   143.93025      0.017295832   -0.0013086138  -0.0013086138   0.018604446  
     49000   146.94306      0.018209243   -0.00078463891 -0.00078463891  0.018993882  
     50000   149.955        0.018936784   -0.00044642139 -0.00044642139  0.019383205  
     51000   152.973        0.019773312    0              0              0.019773312  
     52000   155.973        0.020161093    0              0              0.020161093  
     53000   158.973        0.020548873    0              0              0.020548873  
     54000   161.973        0.020936653    0              0              0.020936653  
     55000   164.973        0.021324434    0              0              0.021324434  
     56000   167.973        0.021712214    0              0              0.021712214  
     57000   170.973        0.022099995    0              0              0.022099995  
     58000   173.973        0.022487775    0              0              0.022487775  
     59000   177.0085       0.022280184   -0.00059996031 -0.00059996031  0.022880144  
     60000   180.06151      0.021824275   -0.0014505019  -0.0014505019   0.023274777  
     61000   182.99223      0.020812046   -0.0028415571  -0.0028415571   0.023653603  
     62000   185.973        0.024038897    0              0              0.024038897  
     63000   188.973        0.024426677    0              0              0.024426677  
     64000   168.58428     -6.1750585     -6.1968497     -6.1968497      0.021791228  
     65000   195.74564     -6.1844318     -6.2097339     -6.2097339      0.02530211   
     66000   165.00053     -6.0582432     -6.0795711     -6.0795711      0.021327992  
     67000   104.47822     -5.8223936     -5.8358985     -5.8358985      0.01350487   
     68000   160.32499     -6.1414953     -6.1622189     -6.1622189      0.020723631  
     69000   177.25219     -6.164455      -6.1873666     -6.1873666      0.022911644  
     70000   223.21726     -6.1804276     -6.2092807     -6.2092807      0.028853096  
     71000   221.46556     -6.1807201     -6.2093468     -6.2093468      0.02862667   
     72000   244.68914     -6.1728959     -6.2045244     -6.2045244      0.031628553  
     73000   214.34785     -6.1808551     -6.2085617     -6.2085617      0.027706634  
     74000   95.885242     -4.8166335     -4.8290276     -4.8290276      0.01239414   
     75000   159.24733     -5.9598175     -5.9804018     -5.9804018      0.020584333  
     76000   163.09212     -6.0633292     -6.0844105     -6.0844105      0.021081311  
     77000   215.80341     -5.9919476     -6.0198423     -6.0198423      0.02789478   
     78000   119.67605     -5.5706776     -5.5861469     -5.5861469      0.015469344  
     79000   398.23811     -6.0481262     -6.0996025     -6.0996025      0.051476315  
     80000   324.86035     -5.9942805     -6.036272      -6.036272       0.041991496  
     81000   98.593293     -5.0841477     -5.0968919     -5.0968919      0.012744183  
     82000   215.99559     -5.9515293     -5.979449      -5.979449       0.027919622  
     83000   165.75386     -6.0280853     -6.0495107     -6.0495107      0.021425368  
     84000   792.82387     -4.7583276     -4.8608081     -4.8608081      0.10248053   
     85000   219.16256     -5.8359815     -5.8643105     -5.8643105      0.028328985  
     86000   119.57486     -5.3884597     -5.403916      -5.403916       0.015456264  
     87000   232.17434     -6.1682735     -6.1982844     -6.1982844      0.030010889  
     88000   171.02064     -5.9929176     -6.0150238     -6.0150238      0.022106153  
     89000   703.34306     -5.5617349     -5.6526491     -5.6526491      0.090914225  
     90000   358.9471      -5.8330859     -5.8794834     -5.8794834      0.046397555  
     91000   116.538       -5.0785618     -5.0936256     -5.0936256      0.015063719  
     92000   196.01741     -5.9742211     -5.9995583     -5.9995583      0.025337239  
     93000   180.32482     -5.9851644     -6.0084732     -6.0084732      0.023308812  
     94000   728.30019     -5.4918246     -5.5859648     -5.5859648      0.094140188  
     95000   366.0443      -6.0073031     -6.0546181     -6.0546181      0.047314939  
     96000   112.48431     -4.8165488     -4.8310885     -4.8310885      0.014539738  
     97000   259.70324     -5.8198534     -5.8534227     -5.8534227      0.033569279  
     98000   157.17023     -5.6555761     -5.6758919     -5.6758919      0.020315846  
     99000   313.4105      -6.1691801     -6.2096916     -6.2096916      0.040511486  
    100000   291.15918     -6.169678      -6.2073133     -6.2073133      0.037635277  
    101000   883.31492     -4.3994109     -4.5135884     -4.5135884      0.11417742   
    102000   388.56045     -5.7894296     -5.839655      -5.839655       0.05022538   
    103000   278.59199     -6.0339901     -6.070001      -6.070001       0.036010841  
    104000   164.32818     -5.5591349     -5.580376      -5.580376       0.021241085  
    105000   302.39697     -5.9406286     -5.9797165     -5.9797165      0.039087877  
    106000   155.90104     -5.2036421     -5.2237939     -5.2237939      0.020151791  
    107000   242.8914      -6.0749475     -6.1063437     -6.1063437      0.031396178  
    108000   213.27409     -5.9570846     -5.9846525     -5.9846525      0.02756784   
    109000   539.59431     -5.9875687     -6.0573168     -6.0573168      0.069748038  
    110000   352.6037      -6.161831      -6.2074086     -6.2074086      0.045577606  
    111000   1047.5075     -4.1843502     -4.3197511     -4.3197511      0.13540097   
    112000   418.28423     -5.9323698     -5.9864373     -5.9864373      0.05406748   
    113000   152.53922     -4.7867606     -4.8064778     -4.8064778      0.019717242  
    114000   278.90576     -5.7706735     -5.8067249     -5.8067249      0.036051399  
    115000   176.92275     -5.4596481     -5.4825172     -5.4825172      0.022869061  
    116000   254.58547     -6.0445773     -6.0774851     -6.0774851      0.032907755  
    117000   215.6091      -5.8709724     -5.8988421     -5.8988421      0.027869664  
    118000   564.10152     -6.0229157     -6.0958315     -6.0958315      0.072915844  
    119000   357.38867     -6.1631992     -6.2093954     -6.2093954      0.046196111  
    120000   299.93718     -6.1283461     -6.167116      -6.167116       0.038769923  
    121000   230.31445     -5.8943556     -5.9241261     -5.9241261      0.029770479  
    122000   346.03116     -6.1590553     -6.2037833     -6.2037833      0.044728038  
    123000   261.01195     -6.0151478     -6.0488862     -6.0488862      0.033738442  
    124000   439.70721     -6.1395292     -6.1963659     -6.1963659      0.056836618  
    125000   285.94803     -6.0628556     -6.0998173     -6.0998173      0.036961684  
    126000   673.30201     -5.8867229     -5.973754      -5.973754       0.087031116  
    127000   364.50602     -6.1574974     -6.2046135     -6.2046135      0.047116101  
    128000   813.30193     -5.5682799     -5.6734074     -5.6734074      0.10512752   
    129000   402.5485      -6.157171      -6.2092044     -6.2092044      0.052033477  
    130000   963.17762     -4.8921841     -5.0166846     -5.0166846      0.12450048   
    131000   489.49375     -6.0702651     -6.1335371     -6.1335371      0.063272033  
    132000   1353.2051     -4.1460295     -4.320945      -4.320945       0.17491549   
    133000   502.22878     -5.9732935     -6.0382117     -6.0382117      0.064918165  
    134000   97.351552     -4.2039366     -4.2165203     -4.2165203      0.012583676  
    135000   505.69927     -5.7884199     -5.8537866     -5.8537866      0.065366761  
    136000   182.00865     -4.4961525     -4.519679      -4.519679       0.023526465  
    137000   246.91676     -5.8767548     -5.9086713     -5.9086713      0.031916496  
    138000   327.69931     -6.1124497     -6.1548082     -6.1548082      0.042358461  
    139000   305.85598     -6.0404935     -6.0800285     -6.0800285      0.039534988  
    140000   368.67884     -6.1385679     -6.1862233     -6.1862233      0.047655481  
    141000   277.51811     -5.9101637     -5.9460358     -5.9460358      0.035872031  
    142000   446.22642     -6.1521153     -6.2097946     -6.2097946      0.057679292  
    143000   314.67069     -6.0251297     -6.0658041     -6.0658041      0.040674379  
    144000   425.5809      -6.1526948     -6.2077054     -6.2077054      0.055010649  
    145000   146.0831      -4.3467153     -4.3655981     -4.3655981      0.018882723  
    146000   421.60863     -5.3764679     -5.4309651     -5.4309651      0.054497193  
    147000   206.39282     -4.5433719     -4.5700502     -4.5700502      0.026678366  
    148000   496.55798     -5.6186095     -5.6827947     -5.6827947      0.064185156  
    149000   208.00845     -4.5305547     -4.5574419     -4.5574419      0.026887202  
    150000   574.65381     -5.8650055     -5.9392854     -5.9392854      0.074279835  
    151000   382.75746     -5.9757831     -6.0252584     -6.0252584      0.049475285  
    152000   237.65244     -4.9414298     -4.9721488     -4.9721488      0.030718988  
    153000   479.21164     -5.7593939     -5.8213369     -5.8213369      0.061942966  
    154000   230.18465     -4.459829      -4.4895827     -4.4895827      0.029753701  
    155000   556.24368     -5.8207935     -5.8926936     -5.8926936      0.071900138  
    156000   149.00531     -4.1812821     -4.2005426     -4.2005426      0.019260448  
    157000   604.38971     -5.8405063     -5.9186298     -5.9186298      0.078123501  
    158000   110.65841     -4.0114962     -4.0257999     -4.0257999      0.014303722  
    159000   612.20064     -5.9614387     -6.0405719     -6.0405719      0.079133144  
    160000   1140.36       -4.6275887     -4.7749918     -4.7749918      0.14740309   
    161000   545.3776      -6.1212902     -6.1917857     -6.1917857      0.070495587  
    162000   679.30927     -6.0444359     -6.1322436     -6.1322436      0.087807615  
    163000   348.8152      -5.9704532     -6.0155411     -6.0155411      0.045087904  
    164000   468.31451     -6.1423615     -6.2028959     -6.2028959      0.060534402  
    165000   298.6108      -5.7163415     -5.75494       -5.75494        0.038598475  
    166000   384.29915     -5.9658583     -6.0155329     -6.0155329      0.049674564  
    167000   261.4466      -5.2103277     -5.2441223     -5.2441223      0.033794626  
    168000   416.15216     -5.7886661     -5.8424579     -5.8424579      0.053791888  
    169000   248.04327     -4.7682301     -4.8002922     -4.8002922      0.032062109  
    170000   629.53566     -5.9819584     -6.0633323     -6.0633323      0.08137387   
    171000   1055.1657     -5.3892033     -5.5255941     -5.5255941      0.13639087   
    172000   448.23865     -6.1103845     -6.1683239     -6.1683239      0.057939393  
    173000   512.13274     -6.1412952     -6.2074936     -6.2074936      0.066198352  
    174000   314.95388     -5.6665654     -5.7072764     -5.7072764      0.040710985  
    175000   350.86453     -5.8973793     -5.9427321     -5.9427321      0.0453528    
    176000   283.1765      -5.2390794     -5.2756828     -5.2756828      0.036603436  
    177000   440.41275     -5.6099738     -5.6669016     -5.6669016      0.056927816  
    178000   263.43043     -4.645946      -4.6799971     -4.6799971      0.034051056  
    179000   672.48754     -5.8666315     -5.9535574     -5.9535574      0.086925837  
    180000   1159.0506     -5.0116973     -5.1615163     -5.1615163      0.14981904   
    181000   480.21199     -6.1160194     -6.1780916     -6.1780916      0.062072271  
    182000   589.74476     -6.1319109     -6.2081414     -6.2081414      0.076230494  
    183000   330.05498     -5.6095177     -5.6521806     -5.6521806      0.042662954  
    184000   639.47983     -6.0667427     -6.1494019     -6.1494019      0.082659255  
    185000   907.67602     -5.835131      -5.9524574     -5.9524574      0.11732633   
    186000   380.14222     -5.8808199     -5.9299571     -5.9299571      0.049137238  
    187000   449.16181     -6.0328822     -6.0909409     -6.0909409      0.05805872   
    188000   307.5082      -5.1317364     -5.1714849     -5.1714849      0.039748555  
    189000   611.5605      -5.6748827     -5.7539331     -5.7539331      0.079050399  
    190000   468.63059     -6.0282518     -6.088827      -6.088827       0.060575259  
    191000   321.98051     -4.8637908     -4.9054101     -4.9054101      0.041619247  
    192000   713.58739     -5.8316245     -5.9238629     -5.9238629      0.09223841   
    193000   1185.8811     -4.9575332     -5.1108203     -5.1108203      0.15328716   
    194000   473.70567     -6.0545702     -6.1158014     -6.1158014      0.061231264  
    195000   629.10675     -6.1271567     -6.2084751     -6.2084751      0.08131843   
    196000   339.9195      -5.5622244     -5.6061624     -5.6061624      0.043938043  
    197000   578.87472     -5.6676633     -5.7424887     -5.7424887      0.07482543   
    198000   147.40177     -4.0036811     -4.0227342     -4.0227342      0.019053175  
    199000   714.06021     -6.0599216     -6.1522212     -6.1522212      0.092299526  
    200000   918.43784     -5.8991725     -6.0178899     -6.0178899      0.11871741   
    201000   391.69562     -5.7778841     -5.8285147     -5.8285147      0.050630632  
    202000   450.05891     -5.8458021     -5.9039768     -5.9039768      0.058174679  
    203000   315.64712     -4.7312949     -4.7720955     -4.7720955      0.040800593  
    204000   790.00127     -5.7864373     -5.888553      -5.888553       0.10211568   
    205000   1055.9019     -5.7079394     -5.8444254     -5.8444254      0.13648603   
    206000   428.5121      -5.8592054     -5.914595      -5.914595       0.055389536  
    207000   453.23796     -5.8819065     -5.9404921     -5.9404921      0.058585604  
    208000   329.2487      -4.7301422     -4.7727009     -4.7727009      0.042558734  
    209000   745.86198     -6.0499739     -6.1463841     -6.1463841      0.096410228  
    210000   752.21452     -5.9628238     -6.0600552     -6.0600552      0.097231358  
    211000   1235.4225     -5.1887097     -5.3484006     -5.3484006      0.15969089   
    212000   473.74264     -5.9514789     -6.0127149     -6.0127149      0.061236042  
    213000   511.84443     -5.9695747     -6.0357358     -6.0357358      0.066161085  
    214000   335.88889     -4.6460036     -4.6894206     -4.6894206      0.043417047  
    215000   792.91281     -5.9737396     -6.0762316     -6.0762316      0.10249202   
    216000   948.42977     -5.9147812     -6.0373754     -6.0373754      0.12259417   
    217000   393.47658     -5.5246284     -5.5754892     -5.5754892      0.050860839  
    218000   553.15958     -5.694706      -5.7662075     -5.7662075      0.071501487  
    219000   1303.1336     -4.9964396     -5.1648829     -5.1648829      0.16844324   
    220000   530.48052     -5.9292548     -5.9978248     -5.9978248      0.068569988  
    221000   513.31744     -5.8918222     -5.9581737     -5.9581737      0.066351487  
    222000   345.56656     -4.5596301     -4.6042981     -4.6042981      0.044667984  
    223000   835.37876     -5.9825793     -6.0905605     -6.0905605      0.10798118   
    224000   780.1572      -6.0939442     -6.1947875     -6.1947875      0.10084323   
    225000   376.06772     -5.3284304     -5.377041      -5.377041       0.048610568  
    226000   720.13357     -5.6383026     -5.7313871     -5.7313871      0.09308457   
    227000   1384.2137     -4.8893415     -5.0682652     -5.0682652      0.17892366   
    228000   532.41482     -6.0080926     -6.0769126     -6.0769126      0.068820017  
    229000   552.05907     -5.8152314     -5.8865906     -5.8865906      0.071359235  
    230000   299.61582     -4.3117249     -4.3504532     -4.3504532      0.038728384  
    231000   907.49171     -5.9123352     -6.0296377     -6.0296377      0.11730251   
    232000   947.48316     -5.991827      -6.1142988     -6.1142988      0.12247181   
    233000   426.52993     -5.5114855     -5.5666188     -5.5666188      0.055133321  
    234000   621.15563     -5.5794645     -5.6597551     -5.6597551      0.080290667  
    235000   1521.7692     -4.5191833     -4.7158874     -4.7158874      0.1967041    
    236000   555.19758     -5.9923871     -6.064152      -6.064152       0.071764919  
    237000   532.78303     -5.8661949     -5.9350625     -5.9350625      0.068867612  
    238000   380.33898     -4.4311864     -4.4803491     -4.4803491      0.049162671  
    239000   618.41551     -6.0659083     -6.1458448     -6.1458448      0.079936478  
    240000   569.04521     -6.0133283     -6.0868832     -6.0868832      0.073554866  
    241000   691.31521     -5.8190369     -5.9083964     -5.9083964      0.089359504  
    242000   1426.7795     -4.7859602     -4.9703859     -4.9703859      0.18442573   
    243000   524.92684     -5.8613916     -5.9292437     -5.9292437      0.06785212   
    244000   703.56902     -5.7241584     -5.8151018     -5.8151018      0.090943433  
    245000   2432.9049     -4.1165521     -4.4310297     -4.4310297      0.31447764   
    246000   586.35611     -6.0076094     -6.0834018     -6.0834018      0.075792476  
    247000   579.09829     -5.9037488     -5.9786031     -5.9786031      0.074854329  
    248000   302.73204     -4.2828463     -4.3219775     -4.3219775      0.039131187  
    249000   613.73115     -6.0283769     -6.1077079     -6.1077079      0.079330977  
    250000   681.41431     -5.8174077     -5.9054874     -5.9054874      0.088079713  
    251000   1094.8631     -5.8704364     -6.0119585     -6.0119585      0.14152216   
    252000   456.98107     -5.4216848     -5.4807543     -5.4807543      0.05906944   
    253000   694.8099      -5.4940713     -5.5838825     -5.5838825      0.089811228  
    254000   1426.6483     -5.1885926     -5.3730013     -5.3730013      0.18440877   
    255000   512.84737     -5.7102121     -5.7765028     -5.7765028      0.066290725  
    256000   878.78455     -5.5636583     -5.6772502     -5.6772502      0.11359182   
    257000   2385.4647     -4.1155135     -4.423859      -4.423859       0.30834551   
    258000   608.95082     -5.9797843     -6.0584974     -6.0584974      0.078713071  
    259000   564.93216     -5.8615019     -5.9345251     -5.9345251      0.073023212  
    260000   295.71406     -4.188249      -4.226473      -4.226473       0.038224042  
    261000   697.13298     -6.0772873     -6.1673988     -6.1673988      0.09011151   
    262000   618.92448     -5.9783076     -6.0583099     -6.0583099      0.080002268  
    263000   428.98059     -4.4979241     -4.5533742     -4.5533742      0.055450093  
    264000   789.89979     -6.1061409     -6.2082435     -6.2082435      0.10210256   
    265000   576.76711     -5.8082318     -5.8827848     -5.8827848      0.074553     
    266000   202.24645     -3.8899604     -3.9161028     -3.9161028      0.026142406  
    267000   653.46791     -6.0082166     -6.092684      -6.092684       0.084467357  
    268000   624.51926     -5.8721143     -5.9528397     -5.9528397      0.08072545   
    269000   273.30736     -4.1383308     -4.1736586     -4.1736586      0.035327749  
    270000   762.69308     -6.0955107     -6.1940966     -6.1940966      0.098585819  
    271000   649.59715     -5.9935445     -6.0775115     -6.0775115      0.083967022  
    272000   453.35355     -4.4063829     -4.4649835     -4.4649835      0.058600546  
    273000   636.22912     -5.9482847     -6.0305238     -6.0305238      0.082239069  
    274000   757.57225     -5.5851925     -5.6831164     -5.6831164      0.097923899  
    275000   1355.605      -5.5997083     -5.774934      -5.774934       0.17522569   
    276000   497.5163      -5.2507475     -5.3150565     -5.3150565      0.06430903   
    277000   895.77116     -5.6306302     -5.7464177     -5.7464177      0.11578751   
    278000   1095.592      -5.9656476     -6.107264      -6.107264       0.14161638   
    279000   487.55745     -4.9595722     -5.0225939     -5.0225939      0.063021746  
    280000   1002.001      -5.9598823     -6.0894011     -6.0894011      0.1295188    
    281000   956.39586     -5.9732506     -6.0968745     -6.0968745      0.12362387   
    282000   814.38737     -6.0954833     -6.2007511     -6.2007511      0.10526783   
    283000   431.87668     -4.3186939     -4.3745183     -4.3745183      0.055824443  
    284000   938.68623     -6.0743258     -6.1956606     -6.1956606      0.12133472   
    285000   728.42282     -6.043865      -6.1380211     -6.1380211      0.09415604   
    286000   463.16638     -4.3706319     -4.4305008     -4.4305008      0.059868954  
    287000   744.32745     -6.0441264     -6.1403382     -6.1403382      0.096211874  
    288000   750.16308     -5.7394665     -5.8364327     -5.8364327      0.096966189  
    289000   2015.9319     -4.3377272     -4.5983069     -4.5983069      0.26057965   
    290000   256.90726     -3.7941191     -3.827327      -3.827327       0.033207869  
    291000   765.30573     -6.0568185     -6.155742      -6.155742       0.098923529  
    292000   624.94134     -5.7980487     -5.8788287     -5.8788287      0.080780009  
    293000   1266.6954     -5.8750957     -6.0388289     -6.0388289      0.16373323   
    294000   516.26892     -5.1242484     -5.1909814     -5.1909814      0.066732996  
    295000   990.83515     -6.0592598     -6.1873353     -6.1873353      0.12807549   
    296000   706.35798     -6.0005533     -6.0918572     -6.0918572      0.091303934  
    297000   339.37772     -4.2282672     -4.2721353     -4.2721353      0.043868014  
    298000   781.43818     -6.0475122     -6.148521      -6.148521       0.10100881   
    299000   790.03434     -5.6860837     -5.7882036     -5.7882036      0.10211995   
    300000   1628.4919     -4.9429865     -5.1534856     -5.1534856      0.2104991    
    301000   581.78893     -5.4012343     -5.4764365     -5.4764365      0.075202122  
    302000   1095.6494     -5.7272594     -5.8688832     -5.8688832      0.14162381   
    303000   1017.5686     -6.0682304     -6.1997615     -6.1997615      0.13153107   
    304000   528.40841     -4.542929      -4.6112312     -4.6112312      0.068302148  
    305000   984.75613     -6.0761363     -6.203426      -6.203426       0.12728972   
    306000   710.59198     -5.7462225     -5.8380737     -5.8380737      0.091851222  
    307000   271.60192     -2.9291362     -2.9642435     -2.9642435      0.035107303  
    308000   697.66903     -5.8919816     -5.9821624     -5.9821624      0.0901808    
    309000   716.49017     -5.5255121     -5.6181258     -5.6181258      0.092613624  
    310000   1646.0489     -5.1531405     -5.365909      -5.365909       0.21276852   
    311000   585.63054     -5.2700843     -5.345783      -5.345783       0.075698689  
    312000   958.82457     -6.0858978     -6.2098356     -6.2098356      0.1239378    
    313000   749.25859     -5.7115057     -5.808355      -5.808355       0.096849274  
    314000   3037.583      -2.8692349     -3.2618734     -3.2618734      0.39263841   
    315000   673.09938     -5.7840059     -5.8710108     -5.8710108      0.087004923  
    316000   774.54132     -5.4167901     -5.5169074     -5.5169074      0.10011732   
    317000   1666.4199     -5.1934549     -5.4088566     -5.4088566      0.21540168   
    318000   603.15715     -5.2539847     -5.3319489     -5.3319489      0.07796418   
    319000   1242.3626     -5.6100873     -5.7706753     -5.7706753      0.16058797   
    320000   774.04036     -5.9588715     -6.0589241     -6.0589241      0.10005257   
    321000   212.1034      -3.3528563     -3.3802729     -3.3802729      0.027416516  
    322000   699.57775     -5.7950997     -5.8855273     -5.8855273      0.090427522  
    323000   1147.571      -5.6254173     -5.7737524     -5.7737524      0.14833519   
    324000   919.37573     -6.075171      -6.1940096     -6.1940096      0.11883864   
    325000   334.10543     -3.8848166     -3.9280031     -3.9280031      0.043186516  
    326000   898.62316     -6.0624599     -6.1786161     -6.1786161      0.11615616   
    327000   1010.1548     -5.5776178     -5.7081906     -5.7081906      0.13057276   
    328000   1191.4087     -6.0117595     -6.1657611     -6.1657611      0.15400166   
    329000   578.71515     -4.372316      -4.4471208     -4.4471208      0.074804804  
    330000   806.23921     -5.9624266     -6.0666412     -6.0666412      0.1042146    
    331000   1171.2886     -5.6935964     -5.8449973     -5.8449973      0.15140094   
    332000   1481.8584     -5.7452135     -5.9367587     -5.9367587      0.19154523   
    333000   608.17796     -4.786718      -4.8653312     -4.8653312      0.078613172  
    334000   919.46769     -6.0582424     -6.177093      -6.177093       0.11885053   
    335000   919.92425     -5.5597458     -5.6786553     -5.6786553      0.11890954   
    336000   1634.6251     -5.4502592     -5.6615511     -5.6615511      0.21129188   
    337000   599.17919     -4.9161867     -4.9936367     -4.9936367      0.077449989  
    338000   1149.1645     -5.4574836     -5.6060248     -5.6060248      0.14854117   
    339000   914.1923      -6.0595234     -6.177692      -6.177692       0.11816863   
    340000   258.93784     -3.7995664     -3.8330368     -3.8330368      0.033470342  
    341000   790.2492      -5.866504      -5.9686517     -5.9686517      0.10214773   
    342000   1214.2731     -5.9305125     -6.0874696     -6.0874696      0.15695712   
    343000   1300.2257     -5.9781542     -6.1462216     -6.1462216      0.16806736   
    344000   605.67448     -4.4977121     -4.5760017     -4.5760017      0.078289571  
    345000   1266.3854     -5.9655486     -6.1292418     -6.1292418      0.16369316   
    346000   860.24058     -5.572014      -5.6832088     -5.6832088      0.11119482   
    347000   1377.984      -5.9054201     -6.0835385     -6.0835385      0.17811841   
    348000   530.28153     -4.2868399     -4.3553842     -4.3553842      0.068544268  
    349000   758.23675     -5.7093928     -5.8074026     -5.8074026      0.098009792  
    350000   1191.1766     -5.6248344     -5.7788061     -5.7788061      0.15397166   
    351000   854.77806     -5.9198097     -6.0302984     -6.0302984      0.11048874   
    352000   345.24356     -2.4861126     -2.5307388     -2.5307388      0.044626232  
    353000   721.06843     -5.7035236     -5.796729      -5.796729       0.09320541   
    354000   1257.5901     -5.5766254     -5.7391816     -5.7391816      0.16255627   
    355000   992.46692     -6.0574241     -6.1857105     -6.1857105      0.12828642   
    356000   265.12404     -3.4829014     -3.5171713     -3.5171713      0.034269972  
    357000   775.21205     -5.7612611     -5.8614651     -5.8614651      0.10020402   
    358000   1262.1037     -5.4402803     -5.60342       -5.60342        0.1631397    
    359000   879.25942     -5.8771982     -5.9908514     -5.9908514      0.1136532    
    360000   1846.224      -5.0326197     -5.2712629     -5.2712629      0.23864318   
    361000   660.32426     -4.8666479     -4.9520015     -4.9520015      0.08535361   
    362000   1088.5928     -6.0675555     -6.2082672     -6.2082672      0.14071166   
    363000   1159.2251     -5.6087932     -5.7586348     -5.7586348      0.14984161   
    364000   1111.4408     -6.0654756     -6.2091406     -6.2091406      0.143665     
    365000   260.82        -3.3816036     -3.4153172     -3.4153172      0.033713631  
    366000   968.24118     -6.0210191     -6.1461741     -6.1461741      0.12515499   
    367000   915.94271     -5.470209      -5.5886039     -5.5886039      0.11839489   
    368000   1094.4887     -6.0643306     -6.2058044     -6.2058044      0.14147377   
    369000   252.48792     -3.1382413     -3.1708779     -3.1708779      0.032636625  
    370000   788.84712     -5.6694021     -5.7713686     -5.7713686      0.10196649   
    371000   1401.8601     -5.7096743     -5.8908789     -5.8908789      0.18120464   
    372000   861.02429     -5.7847394     -5.8960355     -5.8960355      0.11129612   
    373000   5100.4603     -3.4525227     -4.1118089     -4.1118089      0.65928624   
    374000   726.66459     -5.292336      -5.3862647     -5.3862647      0.093928771  
    375000   1157.762      -6.0601584     -6.2098108     -6.2098108      0.14965248   
    376000   915.32751     -5.4921608     -5.6104762     -5.6104762      0.11831537   
    377000   1832.954      -5.4118146     -5.6487425     -5.6487425      0.23692791   
    378000   683.47649     -4.5679821     -4.6563284     -4.6563284      0.08834627   
    379000   1014.5068     -6.0222805     -6.1534158     -6.1534158      0.1311353    
    380000   1039.4801     -5.3499232     -5.4842866     -5.4842866      0.13436335   
    381000   1337.5838     -6.0044106     -6.1773069     -6.1773069      0.17289628   
    382000   296.62446     -3.4855529     -3.5238946     -3.5238946      0.038341721  
    383000   1148.973       0.14851642     0              0              0.14851642   
    384000   1151.8724      0.14825206    -0.0006391368  -0.0006391368   0.1488912    
    385000   1154.973       0.14929198     0              0              0.14929198   
    386000   1157.973       0.14967976     0              0              0.14967976   
    387000   1160.973       0.15006754     0              0              0.15006754   
    388000   1164.0859      0.14931833    -0.001151581   -0.001151581    0.15046991   
    389000   1167.0147      0.14811981    -0.0027286761  -0.0027286761   0.15084849   
    390000   1169.8687      0.14882786    -0.0023895347  -0.0023895347   0.15121739   
    391000   1173.061       0.14953534    -0.0020947051  -0.0020947051   0.15163004   
    392000   1175.9608      0.15200482    -3.5009119e-08 -3.5009119e-08  0.15200486   
    393000   1178.973       0.15239422     0              0              0.15239422   
    394000   1181.7722      0.15095134    -0.0018047074  -0.0018047074   0.15275605   
    395000   1184.9729      0.15316976     0              0              0.15316976   
    396000   1187.973       0.15355756     0              0              0.15355756   
    397000   1190.973       0.15394534     0              0              0.15394534   
    398000   1194.137       0.15334134    -0.0010129769  -0.0010129769   0.15435432   
    399000   1196.973       0.1547209      0              0              0.1547209    
    400000   586.26561     -5.1318298     -5.2076106     -5.2076106      0.075780778  
    401000   1202.973       0.15549646     0              0              0.15549646   
    402000   1205.8779      0.1552897     -0.00058224792 -0.00058224792  0.15587195   
    403000   1208.973       0.15627203     0              0              0.15627203   
    404000   1211.973       0.15665981     0              0              0.15665981   
    405000   1215.0343      0.15657753    -0.00047797094 -0.00047797094  0.1570555    
    406000   1218.1486      0.1548563     -0.0026017591  -0.0026017591   0.15745806   
    407000   1220.973       0.15782315     0              0              0.15782315   
    408000   1224.7256      0.15589674    -0.0024114758  -0.0024114758   0.15830821   
    409000   1226.9887      0.15667583    -0.0019249065  -0.0019249065   0.15860074   
    410000   1230.0088      0.15624226    -0.0027488501  -0.0027488501   0.15899111   
    411000   1232.8546      0.15707311    -0.0022858573  -0.0022858573   0.15935897   
    412000   1235.9023      0.15914364    -0.00060927537 -0.00060927537  0.15975292   
    413000   1238.973       0.16014983     0              0              0.16014983   
    414000   1241.973       0.16053761     0              0              0.16053761   
    415000   1244.973       0.16092539     0              0              0.16092539   
    416000   1248.2777      0.15913804    -0.0022145204  -0.0022145204   0.16135256   
    417000   1250.973       0.16170095     0              0              0.16170095   
    418000   1008.5321     -5.8915968     -6.0219598     -6.0219598      0.13036301   
    419000   1474.1304     -5.928088      -6.1186343     -6.1186343      0.19054631   
    420000   1476.4414     -5.7751175     -5.9659625     -5.9659625      0.19084503   
    421000   1178.3559     -5.5729232     -5.7252377     -5.7252377      0.15231445   
    422000   1388.7721     -6.0242187     -6.2037316     -6.2037316      0.17951289   
    423000   336.37464     -2.7748118     -2.8182916     -2.8182916      0.043479835  
    424000   827.06777     -5.1478003     -5.2547072     -5.2547072      0.1069069    
    425000   1274.973       0.16480319     0              0              0.16480319   
    426000   1277.8428      0.16440146    -0.00077267857 -0.00077267857  0.16517414   
    427000   1280.973       0.16557876     0              0              0.16557876   
    428000   1283.973       0.16596654     0              0              0.16596654   
    429000   1286.973       0.16635432     0              0              0.16635432   
    430000   1290.1052      0.16538721    -0.0013719697  -0.0013719697   0.16675918   
    431000   1292.9885      0.16433624    -0.0027956422  -0.0027956422   0.16713188   
    432000   1295.8737      0.16518085    -0.0023239676  -0.0023239676   0.16750482   
    433000   1299.1367      0.1653014     -0.0026252028  -0.0026252028   0.1679266    
    434000   1301.973       0.16829322     0              0              0.16829322   
    435000   1305.8692      0.16739914    -0.0013977064  -0.0013977064   0.16879685   
    436000   1307.8578      0.16822293    -0.00083095783 -0.00083095783  0.16905389   
    437000   1310.973       0.16945656     0              0              0.16945656   
    438000   1313.973       0.16984434     0              0              0.16984434   
    439000   1317.0348      0.16984243    -0.00039766981 -0.00039766981  0.1702401    
    440000   1318.234       0.16961989    -0.00077523572 -0.00077523572  0.17039512   
    441000   165.78378     -4.1513448     -4.1727741     -4.1727741      0.021429235  
    442000   1325.973       0.17139546     0              0              0.17139546   
    443000   1328.8066      0.17082978    -0.00093194825 -0.00093194825  0.17176173   
    444000   1331.973       0.17217102     0              0              0.17217102   
    445000   1334.973       0.1725588      0              0              0.1725588    
    446000   1338.031       0.17252029    -0.00043378492 -0.00043378492  0.17295408   
    447000   1341.1588      0.17076315    -0.0025952321  -0.0025952321   0.17335838   
    448000   1343.973       0.17372214     0              0              0.17372214   
    449000   1346.9707      0.17127038    -0.0028392523  -0.0028392523   0.17410963   
    450000   1350.0303      0.17249936    -0.0020057577  -0.0020057577   0.17450511   
    451000   1352.9826      0.17208217    -0.0028045577  -0.0028045577   0.17488673   
    452000   1355.8258      0.17342945    -0.0018247907  -0.0018247907   0.17525424   
    453000   1358.9264      0.17527828    -0.00037674636 -0.00037674636  0.17565502   
    454000   1361.973       0.17604883     0              0              0.17604883   
    455000   1364.973       0.17643661     0              0              0.17643661   
    456000   1368.0711      0.17623352    -0.00060355381 -0.00060355381  0.17683707   
    457000   1370.973       0.17721217     0              0              0.17721217   
    458000   793.42205     -5.4848484     -5.5874063     -5.5874063      0.10255785   
    459000   1898.3741     -5.7409063     -5.9862904     -5.9862904      0.24538411   
    460000   2117.6169     -3.1938529     -3.4675764     -3.4675764      0.27372347   
    461000   877.77225     -4.736946      -4.8504069     -4.8504069      0.11346097   
    462000   1385.973       0.17915107     0              0              0.17915107   
    463000   1388.8798      0.17898007    -0.00054672758 -0.00054672758  0.1795268    
    464000   1391.973       0.17992663     0              0              0.17992663   
    465000   1394.973       0.18031441     0              0              0.18031441   
    466000   1398.1017      0.17984545    -0.00087338686 -0.00087338686  0.18071883   
    467000   1400.9716      0.18108979     0              0              0.18108979   
    468000   1403.973       0.18147775     0              0              0.18147775   
    469000   1406.7956      0.17915891    -0.0026837004  -0.0026837004   0.18184261   
    470000   1409.9751      0.18099829    -0.001255297   -0.001255297    0.18225359   
    471000   1412.9472      0.18141032    -0.0012274382  -0.0012274382   0.18263776   
    472000   1415.9492      0.18211556    -0.00091023766 -0.00091023766  0.1830258    
    473000   1418.9673      0.18284155    -0.00057437792 -0.00057437792  0.18341593   
    474000   1421.973       0.18380443     0              0              0.18380443   
    475000   1424.9681      0.18375783    -0.00043375048 -0.00043375048  0.18419158   
    476000   1428.1521      0.18345956    -0.0011435809  -0.0011435809   0.18460314   
    477000   1430.973       0.18496778     0              0              0.18496778   
    478000   1433.973       0.18535556     0              0              0.18535556   
    479000   1437.4042      0.18296436    -0.0028347175  -0.0028347175   0.18579907   
    480000   1439.9122      0.18573411    -0.00038914387 -0.00038914387  0.18612326   
    481000   1442.973       0.1865189      0              0              0.1865189    
    482000   1445.973       0.18690668     0              0              0.18690668   
    483000   1449.1089      0.18600638    -0.0013056436  -0.0013056436   0.18731203   
    484000   1451.973       0.18768224     0              0              0.18768224   
    485000   1454.973       0.18807002     0              0              0.18807002   
    486000   1457.7182      0.1861444     -0.0022804631  -0.0022804631   0.18842487   
    487000   1460.989       0.1884768     -0.00037084132 -0.00037084132  0.18884764   
    488000   1463.962       0.18881118    -0.0004207603  -0.0004207603   0.18923194   
    489000   1467.045       0.1885086     -0.0011218507  -0.0011218507   0.18963045   
    490000   1469.9307      0.18854951    -0.0014539499  -0.0014539499   0.19000346   
    491000   1472.9423      0.18937866    -0.0010140764  -0.0010140764   0.19039273   
    492000   1475.957       0.19022598    -0.00055643708 -0.00055643708  0.19078242   
    493000   1479.092       0.19028785    -0.00089978975 -0.00089978975  0.19118764   
    494000   1481.4174      0.18927602    -0.0022122013  -0.0022122013   0.19148822   
    495000   1485.5739      0.1899872     -0.0020382909  -0.0020382909   0.19202549   
    496000   1487.8804      0.19066626    -0.0016573679  -0.0016573679   0.19232363   
    497000   1490.9438      0.19193916    -0.00078045091 -0.00078045091  0.19271961   
    498000   1493.973       0.19311117     0              0              0.19311117   
    499000   1496.9867      0.1930753     -0.00042541217 -0.00042541217  0.19350071   
    500000   1500.1398      0.19211183    -0.0017964597  -0.0017964597   0.19390829   
    501000   1502.9721      0.19427439     0              0              0.19427439   
    502000   1506.8384      0.19297217    -0.0018019876  -0.0018019876   0.19477415   
    503000   1508.8625      0.19427944    -0.00075634487 -0.00075634487  0.19503579   
    504000   1511.973       0.19543785     0              0              0.19543785   
    505000   1515.1048      0.19471603    -0.0011266381  -0.0011266381   0.19584267   
    506000   1517.983       0.19337464    -0.0028400625  -0.0028400625   0.1962147    
    507000   1520.8163      0.19438376    -0.0021971769  -0.0021971769   0.19658094   
    508000   1523.9238      0.19591025    -0.001072356   -0.001072356    0.19698261   
    509000   1526.9455      0.19694612    -0.00042708258 -0.00042708258  0.1973732    
    510000   1530.04        0.19699643    -0.00077675246 -0.00077675246  0.19777319   
    511000   1532.971       0.19665846    -0.0014935963  -0.0014935963   0.19815205   
    512000   1536.0455      0.19642309    -0.0021263756  -0.0021263756   0.19854946   
    513000   1538.9736      0.19621681    -0.002711138   -0.002711138    0.19892795   
    514000   1541.8337      0.19792899    -0.0013686634  -0.0013686634   0.19929765   
    515000   1544.9923      0.19936886    -0.00033706396 -0.00033706396  0.19970592   
    516000   1548.0152      0.19923038    -0.00086629488 -0.00086629488  0.20009668   
    517000   1551.1071      0.19863467    -0.0018616617  -0.0018616617   0.20049633   
    518000   1553.9131      0.1983925     -0.0024665365  -0.0024665365   0.20085903   
    519000   1556.8769      0.20043765    -0.00080449395 -0.00080449395  0.20124214   
    520000   1559.973       0.20164234     0              0              0.20164234   
    521000   1563.114       0.20106221    -0.00098613382 -0.00098613382  0.20204834   
    522000   1565.6871      0.20228822    -9.2731592e-05 -9.2731592e-05  0.20238095   
    523000   1569.0373      0.20279198    -2.2009616e-05 -2.2009616e-05  0.20281399   
    524000   1571.8342      0.20162535    -0.0015501705  -0.0015501705   0.20317552   
    525000   1574.9521      0.20313648    -0.00044205602 -0.00044205602  0.20357854   
    526000   1577.973       0.20396902     0              0              0.20396902   
    527000   1580.9795      0.20392092    -0.000436725   -0.000436725    0.20435764   
    528000   1584.2268      0.20231165    -0.00246574    -0.00246574     0.20477739   
    529000   1586.973       0.20513236     0              0              0.20513236   
    530000   1590.7529      0.2051391     -0.00048184832 -0.00048184832  0.20562095   
    531000   1592.8749      0.20528777    -0.00060746354 -0.00060746354  0.20589524   
    532000   1595.9718      0.20590243    -0.00039312268 -0.00039312268  0.20629555   
    533000   1599.0215      0.20601546    -0.00067428876 -0.00067428876  0.20668975   
    534000   1601.9543      0.20604854    -0.0010203091  -0.0010203091   0.20706885   
    535000   1604.977       0.20639861    -0.0010609516  -0.0010609516   0.20745956   
    536000   1607.954       0.2069188     -0.00092556043 -0.00092556043  0.20784436   
    537000   1611.0918      0.20685023    -0.0013997289  -0.0013997289   0.20824995   
    538000   1613.973       0.20862238     0              0              0.20862238   
    539000   1616.973       0.20901016     0              0              0.20901016   
    540000   1619.7922      0.20779347    -0.0015811094  -0.0015811094   0.20937458   
    541000   1622.973       0.20978573     0              0              0.20978573   
    542000   1625.973       0.21017351     0              0              0.21017351   
    543000   1629.0544      0.21009004    -0.00048176764 -0.00048176764  0.21057181   
    544000   1631.971       0.2109488      0              0              0.2109488    
    545000   1715.7224     -4.6025708     -4.8243454     -4.8243454      0.22177453   
    546000   1637.973       0.21172463     0              0              0.21172463   
    547000   1640.7956      0.21115044    -0.00093902921 -0.00093902921  0.21208947   
    548000   1643.973       0.21250019     0              0              0.21250019   
    549000   1646.973       0.21288797     0              0              0.21288797   
    550000   1650.0213      0.2128905     -0.00039149504 -0.00039149504  0.21328199   
    551000   1653.1142      0.2117208     -0.0019609845  -0.0019609845   0.21368178   
    552000   1655.9014      0.21155048    -0.002491575   -0.002491575    0.21404205   
    553000   1659.0501      0.21255678    -0.0018922848  -0.0018922848   0.21444906   
    554000   1661.9727      0.21482684     0              0              0.21482684   
    555000   1665.8111      0.21433248    -0.00099049872 -0.00099049872  0.21532298   
    556000   1667.8597      0.21486071    -0.00072707866 -0.00072707866  0.21558778   
    557000   1670.973       0.21599021     0              0              0.21599021   
    558000   1673.973       0.21637799     0              0              0.21637799   
    559000   1677.1855      0.21567898    -0.0011142705  -0.0011142705   0.21679325   
    560000   1679.973       0.21715355     0              0              0.21715355   
    561000   1682.9045      0.21753248     0              0              0.21753248   
    562000   1685.7277      0.21668011    -0.0012172943  -0.0012172943   0.2178974    
    563000   1688.973       0.21831689     0              0              0.21831689   
    564000   1691.973       0.21870468     0              0              0.21870468   
    565000   1695.0791      0.21840269    -0.00070347989 -0.00070347989  0.21910617   
    566000   1697.0302      0.21829723    -0.0010611457  -0.0010611457   0.21935837   
    567000   1700.973       0.21986802     0              0              0.21986802   
    568000   1703.8936      0.21837174    -0.0018737894  -0.0018737894   0.22024553   
    569000   1707.0426      0.21813109    -0.0025214943  -0.0025214943   0.22065258   
    570000   1709.8271      0.21915026    -0.0018622366  -0.0018622366   0.22101249   
    571000   1712.9315      0.22073874    -0.00067503603 -0.00067503603  0.22141378   
    572000   1715.973       0.22180692     0              0              0.22180692   
    573000   1718.973       0.2221947      0              0              0.2221947    
    574000   1722.216       0.22128685    -0.0013270453  -0.0013270453   0.22261389   
    575000   1724.973       0.22297026     0              0              0.22297026   
    576000   705.69666     -2.9898707     -3.0810892     -3.0810892      0.091218452  
    577000   741.99617     -1.4168285     -1.512739      -1.512739       0.095910532  
    578000   1733.6933      0.22147507    -0.0026223692  -0.0026223692   0.22409744   
    579000   1736.973       0.22452138     0              0              0.22452138   
    580000   1739.973       0.22490916     0              0              0.22490916   
    581000   1742.973       0.22529694     0              0              0.22529694   
    582000   1746.1336      0.22419437    -0.0015111122  -0.0015111122   0.22570548   
    583000   1748.9658      0.2232661     -0.0028054723  -0.0028054723   0.22607158   
    584000   1751.9329      0.22457264    -0.001882466   -0.001882466    0.2264551    
    585000   1754.0342      0.22543402    -0.0012926991  -0.0012926991   0.22672672   
    586000   1758.0773      0.22720549    -4.3835124e-05 -4.3835124e-05  0.22724932   
    587000   1760.8213      0.2266321     -0.00097192233 -0.00097192233  0.22760402   
    588000   1763.973       0.22801141     0              0              0.22801141   
    589000   1766.973       0.22839919     0              0              0.22839919   
    590000   1770.1556      0.22787435    -0.00093622485 -0.00093622485  0.22881057   
    591000   1772.973       0.22917475     0              0              0.22917475   
    592000   1775.9723      0.22956244     0              0              0.22956244   
    593000   1778.7726      0.2289581     -0.00096629465 -0.00096629465  0.2299244    
    594000   1781.973       0.23033809     0              0              0.23033809   
    595000   1784.973       0.23072587     0              0              0.23072587   
    596000   1788.1219      0.23014903    -0.00098386172 -0.00098386172  0.23113289   
    597000   1790.8566      0.2314676     -1.878724e-05  -1.878724e-05   0.23148638   
    598000   1794.9297      0.23043258    -0.0015802932  -0.0015802932   0.23201288   
    599000   1797.0202      0.23037347    -0.0019096158  -0.0019096158   0.23228309   
    600000   1799.9765      0.22985282    -0.0028124075  -0.0028124075   0.23266523   
    601000   1802.8143      0.23166254    -0.0013694998  -0.0013694998   0.23303204   
    602000   1805.973       0.23344033     0              0              0.23344033   
    603000   1808.973       0.23382811     0              0              0.23382811   
    604000   1811.973       0.23421589     0              0              0.23421589   
    605000   1813.2131      0.23251014    -0.0018660475  -0.0018660475   0.23437619   
    606000   2092.5657     -5.6952643     -5.9657497     -5.9657497      0.27048535   
    607000   1820.973       0.23537923     0              0              0.23537923   
    608000   1823.7374      0.23457464    -0.0011619168  -0.0011619168   0.23573656   
    609000   1826.973       0.23615479     0              0              0.23615479   
    610000   1829.973       0.23654258     0              0              0.23654258   
    611000   1833.1337      0.23596369    -0.00098744434 -0.00098744434  0.23695113   
    612000   1835.973       0.23731814     0              0              0.23731814   
    613000   1838.973       0.23770592     0              0              0.23770592   
    614000   1841.8751      0.2366872     -0.0013938495  -0.0013938495   0.23808105   
    615000   1844.9833      0.23725454    -0.0012282656  -0.0012282656   0.23848281   
    616000   1847.9499      0.23781786    -0.0010484145  -0.0010484145   0.23886628   
    617000   1850.9659      0.23848919    -0.00076693764 -0.00076693764  0.23925612   
    618000   1853.9413      0.23930077    -0.00033995259 -0.00033995259  0.23964072   
    619000   1856.962       0.23968071    -0.00035046652 -0.00035046652  0.24003118   
    620000   1860.2818      0.23812611    -0.0023341948  -0.0023341948   0.2404603    
    621000   1862.973       0.24080816     0              0              0.24080816   
    622000   1865.973       0.24119594     0              0              0.24119594   
    623000   1868.8786      0.24070171    -0.00086981541 -0.00086981541  0.24157152   
    624000   1871.973       0.2419715      0              0              0.2419715    
    625000   1874.9933      0.24197904    -0.00038286646 -0.00038286646  0.24236191   
    626000   1878.1595      0.24104018    -0.0017309835  -0.0017309835   0.24277117   
    627000   1880.973       0.24313484     0              0              0.24313484   
    628000   1885.146       0.24213196    -0.0015422934  -0.0015422934   0.24367425   
    629000   1886.8864      0.24338639    -0.00051281683 -0.00051281683  0.24389921   
    630000   1889.9682      0.24389603    -0.00040153964 -0.00040153964  0.24429757   
    631000   1893.0948      0.24326308    -0.0014386212  -0.0014386212   0.2447017    
    632000   1895.8971      0.24307631    -0.0019876216  -0.0019876216   0.24506393   
    633000   1898.9216      0.24449193    -0.00096294956 -0.00096294956  0.24545488   
    634000   1901.9519      0.24546404    -0.00038253399 -0.00038253399  0.24584657   
    635000   1905.161       0.24463721    -0.0016241744  -0.0016241744   0.24626138   
    636000   1908.0386      0.24402666    -0.0026066916  -0.0026066916   0.24663335   
    637000   1910.8685      0.24501411    -0.0019850285  -0.0019850285   0.24699914   
    638000   1913.9389      0.24628651    -0.0011095112  -0.0011095112   0.24739602   
    639000   1916.9328      0.24742769    -0.00035531907 -0.00035531907  0.24778301   
    640000   1919.9897      0.24759533    -0.00058281648 -0.00058281648  0.24817815   
    641000   1923.1453      0.2465065     -0.0020795359  -0.0020795359   0.24858604   
    642000   1926.0269      0.24742663    -0.0015318866  -0.0015318866   0.24895852   
    643000   1928.783       0.24788507    -0.0014296982  -0.0014296982   0.24931477   
    644000   1931.973       0.24972711     0              0              0.24972711   
    645000   1935.1261      0.24912113    -0.0010135479  -0.0010135479   0.25013468   
    646000   1937.6352      0.2501472     -0.00031180349 -0.00031180349  0.250459     
    647000   1940.8354      0.24816285    -0.0027098117  -0.0027098117   0.25087266   
    648000   1943.9102      0.25038999    -0.00088013082 -0.00088013082  0.25127012   
    649000   1946.973       0.25166601     0              0              0.25166601   
    650000   1950.0223      0.25118861    -0.00087155528 -0.00087155528  0.25206016   
    651000   1953.0496      0.2507365     -0.001714984   -0.001714984    0.25245148   
    652000   1955.64        0.25034043    -0.0024458798  -0.0024458798   0.25278631   
    653000   1958.7799      0.25087546    -0.0023167055  -0.0023167055   0.25319217   
    654000   1961.9624      0.25321555    -0.00038799835 -0.00038799835  0.25360355   
    655000   1964.9936      0.25308523    -0.00091012444 -0.00091012444  0.25399535   
    656000   1968.0601      0.25291366    -0.0014780763  -0.0014780763   0.25439174   
    657000   1970.8786      0.25340934    -0.0013467134  -0.0013467134   0.25475605   
    658000   1973.9819      0.25476777    -0.00038940605 -0.00038940605  0.25515718   
    659000   1977.054       0.25507453    -0.00047974894 -0.00047974894  0.25555428   
    660000   1978.8788      0.25529995    -0.00049021293 -0.00049021293  0.25579016   
    661000   1982.973       0.25631938     0              0              0.25631938   
    662000   1985.7329      0.25482866    -0.0018474662  -0.0018474662   0.25667613   
    663000   1988.973       0.25709494     0              0              0.25709494   
    664000   1991.973       0.25748272     0              0              0.25748272   
    665000   1995.1015      0.25717903    -0.00070807258 -0.00070807258  0.2578871    
    666000   1997.973       0.25825828     0              0              0.25825828   
    667000   2000.973       0.25864606     0              0              0.25864606   
    668000   2003.6871      0.25742433    -0.0015725606  -0.0015725606   0.25899689   
    669000   2006.9791      0.25898021    -0.00044219757 -0.00044219757  0.2594224    
    670000   2010.0035      0.25940852    -0.00040483396 -0.00040483396  0.25981335   
    671000   2012.9589      0.25958178    -0.00061358161 -0.00061358161  0.26019536   
    672000   2016.0339      0.25968217    -0.00091065681 -0.00091065681  0.26059283   
    673000   2018.9181      0.25997708    -0.00098856393 -0.00098856393  0.26096564   
    674000   2022.2326      0.25876557    -0.0026285126  -0.0026285126   0.26139408   
    675000   2024.973       0.2617483      0              0              0.2617483    
    676000   2027.7857      0.25939195    -0.0027199219  -0.0027199219   0.26211187   
    677000   2030.973       0.26252386     0              0              0.26252386   
    678000   2033.973       0.26291164     0              0              0.26291164   
    679000   2037.0798      0.26276562    -0.00054760655 -0.00054760655  0.26331323   
    680000   2039.973       0.26368721     0              0              0.26368721   
    681000   1917.1145     -5.9195923     -6.1673988     -6.1673988      0.2478065    
    682000   2045.973       0.26446277     0              0              0.26446277   
    683000   2048.941       0.26484642     0              0              0.26484642   
    684000   2051.973       0.26523833     0              0              0.26523833   
    685000   2054.973       0.26562611     0              0              0.26562611   
    686000   2058.1542      0.26429769    -0.0017396192  -0.0017396192   0.26603731   
    687000   2060.9299      0.26365007    -0.0027460308  -0.0027460308   0.2663961    
    688000   2064.0764      0.26474333    -0.0020594742  -0.0020594742   0.26680281   
    689000   2066.973       0.26717723     0              0              0.26717723   
    690000   2069.8623      0.26476524    -0.0027854664  -0.0027854664   0.2675507    
    691000   2072.9304      0.26794728     0              0              0.26794728   
    692000   2075.973       0.26834057     0              0              0.26834057   
    693000   2079.0501      0.26834055    -0.00039776647 -0.00039776647  0.26873832   
    694000   2081.973       0.26911613     0              0              0.26911613   
    695000   391.10373     -2.5240596     -2.5746137     -2.5746137      0.050554125  
    696000   2087.6189      0.26822716    -0.0016187614  -0.0016187614   0.26984592   
    697000   2090.973       0.27027947     0              0              0.27027947   
    698000   2093.973       0.27066725     0              0              0.27066725   
    699000   2097.1753      0.26983732    -0.0012438657  -0.0012438657   0.27108118   
    700000   2099.973       0.27144281     0              0              0.27144281   
    701000   2102.8851      0.26901434    -0.0028048876  -0.0028048876   0.27181923   
    702000   2106.0962      0.26987926    -0.0023550452  -0.0023550452   0.2722343    
    703000   2108.8864      0.26996714    -0.0026278278  -0.0026278278   0.27259497   
    704000   2111.8884      0.27243165    -0.00055135252 -0.00055135252  0.272983     
    705000   2114.973       0.27338172     0              0              0.27338172   
    706000   2117.973       0.2737695      0              0              0.2737695    
    707000   2121.3637      0.27210112    -0.0021066616  -0.0021066616   0.27420778   
    708000   3058.4281     -5.1759524     -5.5712853     -5.5712853      0.39533286   
    709000   1911.2467      0.24704803     0              0              0.24704803   
    710000   2129.6831      0.27396595    -0.0013171934  -0.0013171934   0.27528315   
    711000   2132.973       0.2757084      0              0              0.2757084    
    712000   2135.973       0.27609618     0              0              0.27609618   
    713000   2139.2702      0.27469581    -0.0018265672  -0.0018265672   0.27652238   
    714000   2141.973       0.27687174     0              0              0.27687174   
    715000   2146.4089      0.27522949    -0.0022156353  -0.0022156353   0.27744512   
    716000   2147.9821      0.27639897    -0.0012495048  -0.0012495048   0.27764847   
    717000   2150.913       0.27698059    -0.0010467372  -0.0010467372   0.27802733   
    718000   2153.9907      0.27786689    -0.00055826284 -0.00055826284  0.27842515   
    719000   2156.9437      0.27841581    -0.00039105446 -0.00039105446  0.27880686   
    720000   2159.9673      0.27876296    -0.00043472291 -0.00043472291  0.27919769   
    721000   2163.2981      0.27777865    -0.001849569   -0.001849569    0.27962822   
    722000   2165.973       0.27997398     0              0              0.27997398   
    723000   2168.973       0.28036176     0              0              0.28036176   
    724000   2171.8809      0.2802678     -0.00046983587 -0.00046983587  0.28073763   
    725000   2174.973       0.28113733     0              0              0.28113733   
    726000   2177.9846      0.28118273    -0.00034387889 -0.00034387889  0.28152661   
    727000   2181.1794      0.27918829    -0.0027512699  -0.0027512699   0.28193956   
    728000   2183.973       0.28230067     0              0              0.28230067   
    729000   2186.6578      0.28054782    -0.0020998887  -0.0020998887   0.28264771   
    730000   2189.9862      0.28266384    -0.00041409364 -0.00041409364  0.28307793   
    731000   2193.0471      0.28283898    -0.00063460295 -0.00063460295  0.28347359   
    732000   2195.9709      0.28224536    -0.0016061663  -0.0016061663   0.28385152   
    733000   2198.9291      0.28317679    -0.0010571114  -0.0010571114   0.2842339    
    734000   2201.948       0.28411303    -0.00051108596 -0.00051108596  0.28462412   
    735000   2205.2047      0.2833178     -0.0017272858  -0.0017272858   0.28504508   
    736000   2208.053       0.28506521    -0.00034803802 -0.00034803802  0.28541325   
    737000   2210.8235      0.28384357    -0.0019277917  -0.0019277917   0.28577136   
    738000   2213.9336      0.28537847    -0.00079490776 -0.00079490776  0.28617338   
    739000   2216.973       0.28656625     0              0              0.28656625   
    740000   2220.0513      0.28601307    -0.00095109103 -0.00095109103  0.28696416   
    741000   2222.1045      0.28504735    -0.0021821948  -0.0021821948   0.28722955   
    742000   2226.8284      0.28679202    -0.0010481461  -0.0010481461   0.28784017   
    743000   2228.8706      0.28752786    -0.00057626652 -0.00057626652  0.28810413   
    744000   2232.0209      0.28817064    -0.00034070002 -0.00034070002  0.28851134   
    745000   2235.1485      0.2864784     -0.00243722    -0.00243722     0.28891562   
    746000   2237.8732      0.28656712    -0.0027006944  -0.0027006944   0.28926782   
    747000   2240.9088      0.28857134    -0.0010888528  -0.0010888528   0.28966019   
    748000   2243.9417      0.28970406    -0.00034817895 -0.00034817895  0.29005223   
    749000   2247.0494      0.28933088    -0.0011230439  -0.0011230439   0.29045393   
    750000   2250.008       0.28899397    -0.0018423895  -0.0018423895   0.29083636   
    751000   2253.006       0.28847634    -0.0027475469  -0.0027475469   0.29122388   
    752000   2255.7993      0.29021936    -0.0013655819  -0.0013655819   0.29158494   
    753000   2258.9944      0.29159122    -0.00040672182 -0.00040672182  0.29199794   
    754000   2262.0642      0.29117148    -0.0012232691  -0.0012232691   0.29239475   
    755000   2264.9872      0.29027541    -0.0024971696  -0.0024971696   0.29277258   
    756000   2267.8436      0.2921821     -0.00095968857 -0.00095968857  0.29314179   
    757000   2270.9691      0.2935458      0              0              0.2935458    
    758000   2274.2422      0.29220286    -0.0017660141  -0.0017660141   0.29396888   
    759000   2276.973       0.29432186     0              0              0.29432186   
    760000   2279.7135      0.29229945    -0.0023766503  -0.0023766503   0.2946761    
    761000   2282.9514      0.29463728    -0.0004573477  -0.0004573477   0.29509463   
    762000   2285.973       0.2954852      0              0              0.2954852    
    763000   2289.0767      0.29488856    -0.00099782065 -0.00099782065  0.29588639   
    764000   2291.973       0.29626076     0              0              0.29626076   
    765000   2294.973       0.29664854     0              0              0.29664854   
    766000   2297.819       0.29623767    -0.00077874561 -0.00077874561  0.29701641   
    767000   2300.9678      0.29703367    -0.0003897686  -0.0003897686   0.29742344   
    768000   2304.0198      0.29699542    -0.00082252026 -0.00082252026  0.29781794   
    769000   2306.9616      0.29713063    -0.0010675708  -0.0010675708   0.2981982    
    770000   2309.9831      0.29758595    -0.0010028006  -0.0010028006   0.29858875   
    771000   2313.0774      0.29770358    -0.0012851382  -0.0012851382   0.29898872   
    772000   2315.973       0.29936301     0              0              0.29936301   
    773000   2319.9501      0.29924502    -0.0006320716  -0.0006320716   0.29987709   
    774000   2321.8919      0.29936256    -0.00076553022 -0.00076553022  0.30012809   
    775000   2324.973       0.30052635     0              0              0.30052635   
    776000   2328.0463      0.30054835    -0.00037525753 -0.00037525753  0.30092361   
    777000   2330.973       0.30130191     0              0              0.30130191   
    778000   1944.296      -4.2782503     -4.5295703     -4.5295703      0.25131999   
    779000   2337.9696      0.29939592    -0.0028103678  -0.0028103678   0.30220629   
    780000   2339.973       0.30246525     0              0              0.30246525   
    781000   2342.973       0.30285303     0              0              0.30285303   
    782000   2346.0413      0.3028037     -0.00044594827 -0.00044594827  0.30324964   
    783000   2349.087       0.30120325    -0.0024400671  -0.0024400671   0.30364332   
    784000   2351.8532      0.30188811    -0.002112781   -0.002112781    0.30400089   
    785000   2354.6752      0.30160323    -0.0027624374  -0.0027624374   0.30436566   
    786000   2357.9764      0.30479175    -6.1826394e-07 -6.1826394e-07  0.30479237   
    787000   2360.8425      0.30446217    -0.00070067654 -0.00070067654  0.30516285   
    788000   2363.973       0.30556749     0              0              0.30556749   
    789000   2366.973       0.30595527     0              0              0.30595527   
    790000   2369.8688      0.30632959     0              0              0.30632959   
    791000   491.43814     -2.2109236     -2.2744469     -2.2744469      0.063523365  
    792000   2375.6642      0.30579239    -0.0012863093  -0.0012863093   0.3070787    
    793000   2378.973       0.30750639     0              0              0.30750639   
    794000   2381.973       0.30789418     0              0              0.30789418   
    795000   2385.2611      0.30619692    -0.0021222676  -0.0021222676   0.30831919   
    796000   2387.973       0.30866974     0              0              0.30866974   
    797000   2390.8345      0.30703596    -0.0020036507  -0.0020036507   0.30903961   
    798000   2394.0245      0.30680361    -0.0026483438  -0.0026483438   0.30945196   
    799000   2396.8031      0.30850356    -0.0013075578  -0.0013075578   0.30981111   
    800000   2399.973       0.31022086     0              0              0.31022086   
    801000   2402.973       0.31060864     0              0              0.31060864   
    802000   2406.156       0.31017199    -0.00084808272 -0.00084808272  0.31102008   
    803000   2408.973       0.3113842      0              0              0.3113842    
    804000   1294.7456     -0.084545843   -0.25190484    -0.25190484     0.167359     
    805000   2414.6448      0.310679      -0.0014383374  -0.0014383374   0.31211734   
    806000   2417.973       0.31254754     0              0              0.31254754   
    807000   2420.973       0.31293532     0              0              0.31293532   
    808000   2424.2918      0.31119104    -0.0021732658  -0.0021732658   0.31336431   
    809000   2426.973       0.31371088     0              0              0.31371088   
    810000   2429.66        0.31216178    -0.0018964213  -0.0018964213   0.3140582    
    811000   2433.01        0.31342726    -0.0010639712  -0.0010639712   0.31449123   
    812000   2435.9555      0.31381888    -0.0010530858  -0.0010530858   0.31487196   
    813000   2438.953       0.31442538    -0.0008340389  -0.0008340389   0.31525942   
    814000   2441.9864      0.31529526    -0.00035625495 -0.00035625495  0.31565151   
    815000   2445.0717      0.31553751    -0.00051280758 -0.00051280758  0.31605032   
    816000   2447.973       0.31642534     0              0              0.31642534   
    817000   2450.973       0.31681313     0              0              0.31681313   
    818000   2453.8226      0.31605744    -0.0011240332  -0.0011240332   0.31718147   
    819000   2456.973       0.31758869     0              0              0.31758869   
    820000   2459.9947      0.31754276    -0.00043651273 -0.00043651273  0.31797928   
    821000   2463.2508      0.31581497    -0.0025851843  -0.0025851843   0.31840016   
    822000   2465.973       0.31875203     0              0              0.31875203   
    823000   2468.7224      0.31772149    -0.0013859194  -0.0013859194   0.31910741   
    824000   2471.9791      0.31915662    -0.00037175677 -0.00037175677  0.31952838   
    825000   2475.1195      0.31866096    -0.0012733418  -0.0012733418   0.3199343    
    826000   2477.8837      0.31815019    -0.0021414107  -0.0021414107   0.3202916    
    827000   2480.9204      0.3197929     -0.00089122313 -0.00089122313  0.32068412   
    828000   2484.0319      0.32072229    -0.00036403098 -0.00036403098  0.32108632   
    829000   2487.1201      0.31894754    -0.0025379679  -0.0025379679   0.32148551   
    830000   2489.8391      0.31915879    -0.0026781716  -0.0026781716   0.32183696   
    831000   2492.98        0.32095818    -0.0012847772  -0.0012847772   0.32224296   
    832000   2495.913       0.3221412     -0.00048087816 -0.00048087816  0.32262208   
    833000   2498.9931      0.32242862    -0.00059159491 -0.00059159491  0.32302022   
    834000   2502.1715      0.32109888    -0.0023321674  -0.0023321674   0.32343105   
    835000   2505.1272      0.32099639    -0.0028167121  -0.0028167121   0.32381311   
    836000   2507.8703      0.32358122    -0.00058646412 -0.00058646412  0.32416768   
    837000   2511.0392      0.32419956    -0.00037772536 -0.00037772536  0.32457729   
    838000   2513.6106      0.32218628    -0.002723392   -0.002723392    0.32490967   
    839000   2517.8934      0.32319656    -0.0022667004  -0.0022667004   0.32546326   
    840000   2519.8949      0.32481023    -0.00091174966 -0.00091174966  0.32572198   
    841000   2522.973       0.32611986     0              0              0.32611986   
    842000   2526.0045      0.32556597    -0.00094573971 -0.00094573971  0.32651171   
    843000   2529.1665      0.32447533    -0.0024450992  -0.0024450992   0.32692043   
    844000   2532.4474      0.32565242    -0.0016920967  -0.0016920967   0.32734452   
    845000   2534.8455      0.32694114    -0.00071335718 -0.00071335718  0.3276545    
    846000   2537.9727      0.32745978    -0.00059893698 -0.00059893698  0.32805872   
    847000   2541.0738      0.32713673    -0.0013228286  -0.0013228286   0.32845956   
    848000   2543.8679      0.32762368    -0.0011970493  -0.0011970493   0.32882073   
    849000   2546.9749      0.32880121    -0.00042113303 -0.00042113303  0.32922234   
    850000   2550.1928      0.32849915    -0.0011391465  -0.0011391465   0.32963829   
    851000   2552.973       0.32999766     0              0              0.32999766   
    852000   2556.5731      0.32763953    -0.0028234891  -0.0028234891   0.33046302   
    853000   2558.9605      0.33042017    -0.00035143802 -0.00035143802  0.3307716    
    854000   2561.973       0.331161       0              0              0.331161     
    855000   2565.1267      0.33082349    -0.00074516483 -0.00074516483  0.33156865   
    856000   2567.973       0.33193656     0              0              0.33193656   
    857000   2570.973       0.33232434     0              0              0.33232434   
    858000   2573.8581      0.33216385    -0.00053342409 -0.00053342409  0.33269727   
    859000   2576.9556      0.33270385    -0.00039379993 -0.00039379993  0.33309765   
    860000   2579.9818      0.33287791    -0.00061090545 -0.00061090545  0.33348882   
    861000   2583.0461      0.33312781    -0.00075709933 -0.00075709933  0.33388491   
[...]
   1890000   738.46965     -5.9931188     -6.0885735     -6.0885735      0.095454694  
   1891000   1110.7599     -5.6007783     -5.7443553     -5.7443553      0.14357698   
   1892000   421.90693     -5.8140197     -5.8685554     -5.8685554      0.05453575   
   1893000   588.96368     -5.809866      -5.8859956     -5.8859956      0.076129531  
   1894000   1217.0926     -5.1347661     -5.2920876     -5.2920876      0.15732156   
   1895000   453.70387     -5.9442735     -6.0029193     -6.0029193      0.058645828  
   1896000   460.02624     -5.9292734     -5.9887364     -5.9887364      0.059463058  
   1897000   317.44056     -4.6557631     -4.6967955     -4.6967955      0.041032413  
   1898000   759.56494     -5.9324947     -6.0306762     -6.0306762      0.098181475  
   1899000   1433.1932     -4.5734325     -4.7586873     -4.7586873      0.18525476   
   1900000   546.03433     -6.1152173     -6.1857978     -6.1857978      0.070580476  
   1901000   593.00773     -6.1311019     -6.2077542     -6.2077542      0.076652265  
   1902000   348.91243     -5.4509231     -5.4960236     -5.4960236      0.045100471  
   1903000   565.20874     -5.7120746     -5.7851336     -5.7851336      0.073058964  
   1904000   136.65641     -3.9522625     -3.9699267     -3.9699267      0.017664227  
   1905000   607.69273     -6.1307463     -6.2092967     -6.2092967      0.07855045   
   1906000   627.59877     -5.8908352     -5.9719587     -5.9719587      0.081123508  
   1907000   1239.1279     -4.7338187     -4.8939885     -4.8939885      0.16016986   
   1908000   495.15847     -6.089311      -6.1533152     -6.1533152      0.064004256  
   1909000   498.37304     -6.0970023     -6.161422      -6.161422       0.064419771  
   1910000   335.66953     -5.119109      -5.1624977     -5.1624977      0.043388692  
   1911000   616.10905     -5.8246948     -5.9043332     -5.9043332      0.079638345  
   1912000   2301.5837     -3.8590191     -4.1565221     -4.1565221      0.29750305   
   1913000   590.65738     -6.1308995     -6.207248      -6.207248       0.076348459  
   1914000   727.55184     -6.0605413     -6.1545848     -6.1545848      0.094043456  
   1915000   353.89381     -5.7687284     -5.8144728     -5.8144728      0.045744365  
   1916000   402.20053     -5.8691295     -5.921118      -5.921118       0.051988499  
   1917000   276.91689     -5.0049942     -5.0407885     -5.0407885      0.035794318  
   1918000   589.17138     -6.1267872     -6.2029435     -6.2029435      0.076156378  
   1919000   1076.7996     -5.4575619     -5.5967492     -5.5967492      0.13918727   
   1920000   446.92089     -6.0942157     -6.1519848     -6.1519848      0.057769059  
   1921000   520.67121     -6.1379107     -6.2052127     -6.2052127      0.067302036  
   1922000   312.40572     -5.5911744     -5.631556      -5.631556       0.040381609  
   1923000   450.32797     -5.8204809     -5.8786904     -5.8786904      0.058209458  
   1924000   263.43405     -4.6891083     -4.7231598     -4.7231598      0.034051524  
   1925000   588.50022     -5.8612006     -5.9372702     -5.9372702      0.076069624  
   1926000   1056.2465     -4.7667024     -4.903233      -4.903233       0.13653058   
   1927000   505.21993     -6.1406899     -6.2059947     -6.2059947      0.065304801  
   1928000   627.48085     -6.1050683     -6.1861766     -6.1861766      0.081108266  
   1929000   340.05144     -5.8448272     -5.8887823     -5.8887823      0.043955099  
   1930000   384.22415     -5.9879709     -6.0376358     -6.0376358      0.04966487   
   1931000   274.22435     -5.3154933     -5.3509396     -5.3509396      0.035446279  
   1932000   371.76189     -5.7460391     -5.7940931     -5.7940931      0.048053996  
   1933000   248.96231     -4.8593215     -4.8915025     -4.8915025      0.032180904  
   1934000   577.02272     -5.6343355     -5.7089216     -5.7089216      0.07458604   
   1935000   203.21536     -4.337795      -4.3640627     -4.3640627      0.026267647  
   1936000   636.1665      -5.6087735     -5.6910045     -5.6910045      0.082230974  
   1937000   1190.6544     -4.4234831     -4.5773872     -4.5773872      0.15390416   
   1938000   595.41617     -6.0443245     -6.121288      -6.121288       0.07696358   
   1939000   885.11264     -5.7436839     -5.8580937     -5.8580937      0.11440979   
   1940000   425.5244      -6.1272319     -6.1822352     -6.1822352      0.055003346  
   1941000   912.83013     -5.6846852     -5.8026778     -5.8026778      0.11799256   
   1942000   460.82293     -6.1465264     -6.2060924     -6.2060924      0.059566039  
   1943000   771.78601     -5.9085476     -6.0083088     -6.0083088      0.099761171  
   1944000   412.10633     -6.1273743     -6.1806433     -6.1806433      0.053268924  
   1945000   784.54719     -5.8914392     -5.9928499     -5.9928499      0.10141068   
   1946000   398.53859     -6.120764      -6.1722792     -6.1722792      0.051515156  
   1947000   684.06666     -6.018253      -6.1066756     -6.1066756      0.088422555  
   1948000   374.46476     -6.0983091     -6.1467124     -6.1467124      0.048403369  
   1949000   627.56056     -6.0598067     -6.1409253     -6.1409253      0.081118569  
   1950000   356.18583     -6.0731258     -6.1191664     -6.1191664      0.046040632  
   1951000   458.14816     -6.15051       -6.2097303     -6.2097303      0.059220297  
   1952000   295.2521      -5.9150863     -5.9532506     -5.9532506      0.038164329  
   1953000   452.50664     -6.1512578     -6.2097489     -6.2097489      0.058491074  
   1954000   295.06761     -5.952934      -5.9910745     -5.9910745      0.038140483  
   1955000   452.31634     -6.1513756     -6.2098421     -6.2098421      0.058466476  
   1956000   306.17893     -5.9601874     -5.9997641     -5.9997641      0.039576733  
   1957000   407.41241     -6.150851      -6.2035132     -6.2035132      0.052662187  
   1958000   264.2546      -5.843498      -5.8776556     -5.8776556      0.034157588  
   1959000   455.41627     -6.1417264     -6.2005936     -6.2005936      0.058867173  
   1960000   973.00607     -5.0919996     -5.2177705     -5.2177705      0.12577091   
   1961000   444.86515     -6.1490992     -6.2066025     -6.2066025      0.057503333  
   1962000   928.52191     -5.1694114     -5.2894322     -5.2894322      0.12002088   
   1963000   442.53243     -6.1477914     -6.2049932     -6.2049932      0.057201806  
   1964000   973.77475     -5.094446      -5.2203162     -5.2203162      0.12587027   
   1965000   480.28385     -6.1142136     -6.1762952     -6.1762952      0.062081561  
   1966000   951.26362     -5.1210586     -5.2440191     -5.2440191      0.12296047   
   1967000   479.13192     -6.1133654     -6.175298      -6.175298       0.061932662  
   1968000   981.40211     -4.8339374     -4.9607935     -4.9607935      0.12685618   
   1969000   484.34988     -6.0767191     -6.1393263     -6.1393263      0.062607136  
   1970000   325.01811     -6.1152918     -6.1573036     -6.1573036      0.042011888  
   1971000   227.70614     -5.7511097     -5.7805431     -5.7805431      0.029433329  
   1972000   320.00492     -6.1257292     -6.1670931     -6.1670931      0.041363883  
   1973000   255.6896      -5.931357      -5.9644075     -5.9644075      0.033050475  
   1974000   440.6809      -6.1438363     -6.2007988     -6.2007988      0.056962477  
   1975000   298.41428     -6.0952933     -6.1338664     -6.1338664      0.038573073  
   1976000   527.6013      -6.0586705     -6.1268684     -6.1268684      0.06819782   
   1977000   319.70517     -6.1378992     -6.1792243     -6.1792243      0.041325137  
   1978000   725.78017     -5.7412178     -5.8350322     -5.8350322      0.09381445   
   1979000   401.24212     -6.1487997     -6.2006643     -6.2006643      0.051864615  
   1980000   65.932903     -3.8855372     -3.8940597     -3.8940597      0.0085224966 
   1981000   570.35373     -5.7309152     -5.8046392     -5.8046392      0.073724006  
   1982000   179.00621     -4.8297747     -4.8529131     -4.8529131      0.023138369  
   1983000   337.88087     -5.7434135     -5.787088      -5.787088       0.043674531  
   1984000   761.22054     -5.4112043     -5.5095998     -5.5095998      0.098395478  
   1985000   385.90277     -6.1461672     -6.196049      -6.196049       0.049881848  
   1986000   909.048       -4.8629799     -4.9804836     -4.9804836      0.11750368   
   1987000   402.22779     -6.0154129     -6.0674049     -6.0674049      0.051992023  
   1988000   758.02086     -4.7148102     -4.8127921     -4.8127921      0.097981887  
   1989000   402.03133     -6.0465652     -6.0985318     -6.0985318      0.051966628  
   1990000   142.84112     -4.6178377     -4.6363014     -4.6363014      0.018463663  
   1991000   268.86824     -5.8237419     -5.8584959     -5.8584959      0.034753947  
   1992000   166.61455     -5.4893949     -5.5109316     -5.5109316      0.021536621  
   1993000   243.85959     -6.0671584     -6.0986797     -6.0986797      0.031521326  
   1994000   140.24664     -5.1907435     -5.2088718     -5.2088718      0.018128301  
   1995000   240.85356     -5.7901953     -5.8213281     -5.8213281      0.031132766  
   1996000   200.62288     -5.8919291     -5.9178617     -5.9178617      0.025932543  
   1997000   410.68997     -6.1236377     -6.1767235     -6.1767235      0.053085845  
   1998000   335.88915     -6.1613796     -6.2047967     -6.2047967      0.043417081  
   1999000   97.664307     -4.2961817     -4.3088058     -4.3088058      0.012624102  
   2000000   315.9485      -5.7066326     -5.7474722     -5.7474722      0.040839549  
   2001000   134.29651     -5.393455      -5.4108142     -5.4108142      0.017359186  
   2002000   211.8776      -6.0533364     -6.0807237     -6.0807237      0.02738733   
   2003000   196.61907     -5.9217583     -5.9471733     -5.9471733      0.025415009  
   2004000   166.24205     -5.8677186     -5.8892071     -5.8892071      0.021488472  
   2005000   642.40348     -5.7428117     -5.8258489     -5.8258489      0.083037167  
   2006000   394.25213     -5.9985885     -6.0495496     -6.0495496      0.050961087  
   2007000   668.43241     -5.5981998     -5.6846015     -5.6846015      0.08640167   
   2008000   339.89531     -6.0966856     -6.1406205     -6.1406205      0.043934918  
   2009000   611.69192     -5.6797811     -5.7588484     -5.7588484      0.079067387  
   2010000   322.59673     -6.1216842     -6.1633831     -6.1633831      0.0416989    
   2011000   445.57631     -6.0095824     -6.0671777     -6.0671777      0.057595258  
   2012000   285.37231     -6.1685143     -6.2054016     -6.2054016      0.036887266  
   2013000   101.49037     -4.6197044     -4.632823      -4.632823       0.013118659  
   2014000   234.71355     -5.8608709     -5.89121       -5.89121        0.030339108  
   2015000   128.41213     -5.7729403     -5.7895388     -5.7895388      0.01659857   
   2016000   383.02002     -6.0977451     -6.1472544     -6.1472544      0.049509224  
   2017000   305.66913     -6.0824845     -6.1219954     -6.1219954      0.039510836  
   2018000   646.2488      -5.4980252     -5.5815594     -5.5815594      0.083534213  
   2019000   302.16679     -6.0255845     -6.0646426     -6.0646426      0.039058123  
   2020000   107.81417     -5.1525576     -5.1664937     -5.1664937      0.013936075  
   2021000   273.36837     -5.9244991     -5.9598347     -5.9598347      0.035335635  
   2022000   113.28596     -5.40653       -5.4211734     -5.4211734      0.01464336   
   2023000   187.7331      -5.9329536     -5.95722       -5.95722        0.024266408  
   2024000   124.08393     -5.8399119     -5.855951      -5.855951       0.016039107  
   2025000   170.99869     -6.057854      -6.0799573     -6.0799573      0.022103315  
   2026000   84.125397     -5.3240982     -5.3349722     -5.3349722      0.010874061  
   2027000   179.58913     -5.9040403     -5.927254      -5.927254       0.023213717  
   2028000   134.29612     -6.0033917     -6.0207508     -6.0207508      0.017359135  
   2029000   675.97553     -4.3593847     -4.4467614     -4.4467614      0.087376695  
   2030000   210.7548      -5.8137475     -5.8409897     -5.8409897      0.027242196  
   2031000   104.52783     -5.7790445     -5.7925558     -5.7925558      0.013511283  
   2032000   204.94903     -6.1830424     -6.2095341     -6.2095341      0.026491741  
   2033000   225.42594     -6.1724591     -6.2015977     -6.2015977      0.02913859   
   2034000   72.208254     -5.06088       -5.0702137     -5.0702137      0.0093336493 
   2035000   216.53615     -5.9220995     -5.950089      -5.950089       0.027989494  
   2036000   96.364383     -5.7605485     -5.7730046     -5.7730046      0.012456074  
   2037000   182.62165     -6.1844304     -6.2080361     -6.2080361      0.023605701  
   2038000   156.87127     -6.1671462     -6.1874234     -6.1874234      0.020277203  
   2039000   142.37779     -6.1269192     -6.1453229     -6.1453229      0.018403774  
   2040000   165.21233     -6.1804509     -6.2018063     -6.2018063      0.02135537   
   2041000   62.987381     -4.996495      -5.0046368     -5.0046368      0.0081417581 
   2042000   123.85337     -6.1284262     -6.1444355     -6.1444355      0.016009305  
   2043000   202.03978     -6.167442      -6.1935577     -6.1935577      0.026115691  
   2044000   63.41255      -5.2518803     -5.260077      -5.260077       0.0081967154 
   2045000   124.73781     -6.157392      -6.1735157     -6.1735157      0.016123628  
   2046000   153.50188     -6.1875624     -6.2074041     -6.2074041      0.019841675  
   2047000   250.71811     -5.8546278     -5.8870357     -5.8870357      0.032407859  
   2048000   65.930762     -5.6958945     -5.7044167     -5.7044167      0.0085222199 
   2049000   139.9659      -5.9660787     -5.9841707     -5.9841707      0.018092012  
   2050000   108.23082     -6.0355677     -6.0495577     -6.0495577      0.013989931  
   2051000   193.26133     -6.1665567     -6.1915377     -6.1915377      0.024980988  
   2052000   179.81184     -6.0955368     -6.1187793     -6.1187793      0.023242504  
   2053000   60.832114     -5.6786308     -5.686494      -5.686494       0.0078631678 
   2054000   100.23999     -6.0420609     -6.055018      -6.055018       0.012957035  
   2055000   114.30682     -6.1769986     -6.1917739     -6.1917739      0.014775316  
   2056000   112.232       -6.1790868     -6.193594      -6.193594       0.014507125  
   2057000   144.66715     -6.1831081     -6.2018078     -6.2018078      0.018699697  
   2058000   46.504891     -5.5391691     -5.5451803     -5.5451803      0.006011229  
   2059000   96.105783     -6.0671795     -6.0796022     -6.0796022      0.012422647  
   2060000   105.72544     -6.1839852     -6.1976513     -6.1976513      0.013666085  
   2061000   104.59904     -6.1207966     -6.1343171     -6.1343171      0.013520487  
   2062000   88.686236     -6.1542906     -6.1657542     -6.1657542      0.011463596  
   2063000   173.11748     -6.1412182     -6.1635954     -6.1635954      0.022377191  
   2064000   122.64599     -6.1093842     -6.1252374     -6.1252374      0.015853239  
   2065000   50.523808     -5.9085649     -5.9150956     -5.9150956      0.0065307148 
   2066000   107.59637     -6.1142855     -6.1281934     -6.1281934      0.013907922  
   2067000   57.527622     -6.0377093     -6.0451454     -6.0451454      0.0074360288 
   2068000   104.22115     -6.1363075     -6.1497792     -6.1497792      0.013471641  
   2069000   63.983965     -6.0470172     -6.0552878     -6.0552878      0.0082705766 
   2070000   80.81736      -6.1438401     -6.1542866     -6.1542866      0.010446464  
   2071000   69.481505     -6.1728303     -6.1818115     -6.1818115      0.0089811894 
   2072000   73.062978     -6.1624328     -6.1718769     -6.1718769      0.0094441312 
   2073000   71.720812     -6.1902656     -6.1995363     -6.1995363      0.0092706425 
   2074000   37.351447     -5.7290179     -5.733846      -5.733846       0.0048280534 
   2075000   53.848355     -6.1346324     -6.1415928     -6.1415928      0.0069604462 
   2076000   96.183362     -6.1613158     -6.1737484     -6.1737484      0.012432675  
   2077000   106.51635     -6.1592835     -6.1730518     -6.1730518      0.013768319  
   2078000   71.686703     -6.1359004     -6.1451667     -6.1451667      0.0092662336 
   2079000   41.81035      -6.1168002     -6.1222046     -6.1222046      0.0054044118 
   2080000   56.876052     -6.2011332     -6.208485      -6.208485       0.0073518067 
   2081000   67.382418     -6.1598114     -6.1685213     -6.1685213      0.0087098611 
   2082000   30.302468     -6.0949419     -6.0988588     -6.0988588      0.0039169014 
   2083000   46.255087     -6.1560215     -6.1620005     -6.1620005      0.0059789393 
   2084000   44.205052     -6.2006564     -6.2063704     -6.2063704      0.0057139514 
   2085000   40.803551     -6.1835653     -6.1888396     -6.1888396      0.0052742729 
   2086000   35.858327     -6.194467      -6.1991021     -6.1991021      0.0046350525 
   2087000   16.881508     -5.9827081     -5.9848902     -5.9848902      0.0021821061 
   2088000   29.470614     -6.178259      -6.1820683     -6.1820683      0.0038093758 
   2089000   38.405625     -6.1731378     -6.1781021     -6.1781021      0.0049643167 
   2090000   19.951962     -6.1714945     -6.1740735     -6.1740735      0.0025789935 
   2091000   47.172028     -6.1815434     -6.1876409     -6.1876409      0.0060974632 
   2092000   19.820872     -6.1615373     -6.1640994     -6.1640994      0.0025620488 
   2093000   25.007078     -6.1963633     -6.1995957     -6.1995957      0.0032324185 
   2094000   11.247744     -6.1761124     -6.1775663     -6.1775663      0.001453885  
   2095000   14.085142     -6.2074138     -6.2092344     -6.2092344      0.0018206475 
   2096000   12.839749     -6.1848776     -6.1865372     -6.1865372      0.0016596678 
   2097000   9.9865954     -6.2035065     -6.2047974     -6.2047974      0.0012908688 
   2098000   4.8303371     -6.2037273     -6.2043517     -6.2043517      0.00062437007
   2099000   5.1183792     -6.2046069     -6.2052685     -6.2052685      0.00066160244
   2100000   0.04313839    -6.2091357     -6.2091413     -6.2091413      5.5760746e-06
   2100001   0.038575944   -6.2091363     -6.2091413     -6.2091413      4.9863321e-06
Loop time of 1.87996 on 1 procs for 1000000 steps with 2 atoms

Performance: 4595.850 ns/day, 0.005 hours/ns, 531927.114 timesteps/s, 1.064 Matom-step/s
92.5% CPU use with 1 MPI tasks x 1 OpenMP threads

MPI task timing breakdown:
Section |  min time  |  avg time  |  max time  |%varavg| %total
---------------------------------------------------------------
Pair    | 0.49467    | 0.49467    | 0.49467    |   0.0 | 26.31
Neigh   | 0.13036    | 0.13036    | 0.13036    |   0.0 |  6.93
Comm    | 0.28068    | 0.28068    | 0.28068    |   0.0 | 14.93
Output  | 0.15556    | 0.15556    | 0.15556    |   0.0 |  8.27
Modify  | 0.64631    | 0.64631    | 0.64631    |   0.0 | 34.38
Other   |            | 0.1724     |            |       |  9.17

Nlocal:              2 ave           2 max           2 min
Histogram: 1 0 0 0 0 0 0 0 0 0
Nghost:             43 ave          43 max          43 min
Histogram: 1 0 0 0 0 0 0 0 0 0
Neighs:              0 ave           0 max           0 min
Histogram: 1 0 0 0 0 0 0 0 0 0
FullNghs:            2 ave           2 max           2 min
Histogram: 1 0 0 0 0 0 0 0 0 0

Total # of neighbors = 2
Ave neighs/atom = 1
Neighbor list builds = 7495
Dangerous builds = 0
write_restart 	./endconf/endconf*3.restart
System init for write_restart ...

Total wall time: 0:00:04
