LAMMPS (7 Feb 2024 - Update 1)
OMP_NUM_THREADS environment is not set. Defaulting to 1 thread. (src/comm.cpp:98)
  using 1 OpenMP thread(s) per MPI task
#============Initialization=================
units 			metal
atom_style 		atomic
boundary 		p p p

############################################
#              CLI Variables               #
############################################
variable 		seed index 200093          #
variable 		N index 36                 #
variable 		iter index 10000000        #
variable 		iterther index 1000000     #
variable 		iexport index 100000       #
variable 		tempchauf index 4000       #
variable 		Tdamp index 0.001          #
variable 		timestep index 0.0001      #
variable 		box_size index 30		   #
############################################
############################################
#=========Simulation box definition=========
lattice 		sc 1.0
Lattice spacing in x,y,z = 1 1 1
region 			bigbox block 0 ${box_size} 0 ${box_size} 0 ${box_size}
region 			bigbox block 0 30 0 ${box_size} 0 ${box_size}
region 			bigbox block 0 30 0 30 0 ${box_size}
region 			bigbox block 0 30 0 30 0 30
create_box 		1 bigbox
Created orthogonal box = (0 0 0) to (30 30 30)
  1 by 1 by 1 MPI processor grid

#==================Atoms====================
region 			safezone block 5 10 5 10 5 10 units box
create_atoms 	1 random ${N} ${seed} safezone
create_atoms 	1 random 36 ${seed} safezone
create_atoms 	1 random 36 200093 safezone
Created 36 atoms
  using lattice units in orthogonal box = (0 0 0) to (30 30 30)
  create_atoms CPU = 0.008 seconds
labelmap 		atom 1 C
mass 			* 12.01



#==========Velocity initialization==========
velocity 		all create 0.0000001 1563967 rot yes dist gaussian

#======Pair style for atom interactions=============
pair_style 		airebo 1.8 1 1
pair_coeff 		* * CH.airebo C
Reading airebo potential file CH.airebo with DATE: 2011-10-25

#==============Neighbor selection===================
neighbor 		0.3 bin
neigh_modify 	every 1 delay 0 check yes



#==============Custom Wall force====================
#==========Wall with harmonic potential=============
#variable       k equal 10.0

#fix             xlo_wall all wall/harmonic xlo EDGE v_k 1.0 0.7
#fix             xhi_wall all wall/harmonic xhi EDGE v_k 1.0 0.7
#fix             ylo_wall all wall/harmonic ylo EDGE v_k 1.0 0.7
#fix             yhi_wall all wall/harmonic yhi EDGE v_k 1.0 0.7
#fix             zlo_wall all wall/harmonic zlo EDGE v_k 1.0 0.7
#fix             zhi_wall all wall/harmonic zhi EDGE v_k 1.0 0.7



#=====================Timestep======================
timestep 		${timestep}
timestep 		0.0001

#===============Define dump command=================
dump 			1 all cfg 100000 ./dump/dump.tensile_*.cfg mass type xs ys zs vx vy vz id

#========System temperature printing info===========
thermo_style 	custom step temp etotal epair pe ke
thermo 			${iexport}	# 1'000'000
thermo 			100000	



#====================CRC Cycle======================

#=============Condensation et chauffe===============

# Minimize during the heating phase
#min_style       sd
#minimize        1.0e-5 1.0e-7 500 1000

fix 			1 all nve
fix 			2 all temp/berendsen 0.0 ${tempchauf} ${Tdamp}
fix 			2 all temp/berendsen 0.0 4000 ${Tdamp}
fix 			2 all temp/berendsen 0.0 4000 0.001
fix             3 all momentum 1 linear 1 1 1 angular rescale

run 			${iter}
run 			10000000
Neighbor list info ...
  update: every = 1 steps, delay = 0 steps, check = yes
  max neighbors/atom: 2000, page size: 100000
  master list distance cutoff = 8.116371
  ghost atom cutoff = 8.116371
  binsize = 4.0581855, bins = 8 8 8
  1 neighbor lists, perpetual/occasional/extra = 1 0 0
  (1) pair airebo, perpetual
      attributes: full, newton on, ghost
      pair build: full/bin/ghost
      stencil: full/ghost/bin/3d
      bin: standard
Per MPI rank memory allocation (min/avg/max) = 3.885 | 3.885 | 3.885 Mbytes
   Step          Temp          TotEng         E_pair         PotEng         KinEng    
         0   1e-07          13484.556      13484.556      13484.556      4.5241051e-10
    100000   40.298829     -178.07817     -178.26049     -178.26049      0.18231614   
    200000   79.189549     -183.98025     -184.33851     -184.33851      0.35826184   
    300000   121.92487     -183.24238     -183.79399     -183.79399      0.55160094   
    400000   163.52781     -189.64715     -190.38696     -190.38696      0.739817     
    500000   198.96701     -189.36595     -190.2661      -190.2661       0.90014764   
    600000   243.94084     -193.81509     -194.91871     -194.91871      1.103614     
    700000   272.71228     -197.32272     -198.5565      -198.5565       1.233779     
    800000   334.33191     -199.45646     -200.96901     -200.96901      1.5125527    
    900000   354.95418     -199.28777     -200.89362     -200.89362      1.60585      
   1000000   385.65311     -199.09126     -200.836       -200.836        1.7447352    
   1100000   446.57958     -201.12597     -203.14634     -203.14634      2.0203729    
   1200000   479.5441      -201.39485     -203.56436     -203.56436      2.1695079    
   1300000   516.4437      -200.93517     -203.27162     -203.27162      2.3364456    
   1400000   576.6187      -199.86139     -202.47007     -202.47007      2.6086836    
   1500000   597.33101     -199.93038     -202.63277     -202.63277      2.7023883    
   1600000   621.44969     -198.10788     -200.91938     -200.91938      2.8115037    
   1700000   708.69866     -199.32899     -202.53522     -202.53522      3.2062272    
   1800000   721.79888     -199.33565     -202.60115     -202.60115      3.265494     
   1900000   789.58567     -198.55645     -202.12862     -202.12862      3.5721685    
   2000000   821.32063     -205.11903     -208.83477     -208.83477      3.7157408    
   2100000   859.44114     -203.13398     -207.02219     -207.02219      3.888202     
   2200000   906.89385     -204.7186      -208.82148     -208.82148      4.1028831    
   2300000   953.20826     -203.95934     -208.27175     -208.27175      4.3124143    
   2400000   982.8844      -204.44437     -208.89104     -208.89104      4.4466723    
   2500000   955.73702     -204.51386     -208.83772     -208.83772      4.3238547    
   2600000   1032.7476     -204.20655     -208.87881     -208.87881      4.6722589    
   2700000   1066.236      -210.12729     -214.95105     -214.95105      4.8237638    
   2800000   1091.608      -210.45587     -215.39442     -215.39442      4.9385493    
   2900000   1162.7392     -209.41869     -214.67905     -214.67905      5.2603543    
   3000000   1241.718      -208.2349      -213.85256     -213.85256      5.6176625    
   3100000   1218.9469     -208.37678     -213.89143     -213.89143      5.514644     
   3200000   1258.3808     -209.26002     -214.95307     -214.95307      5.6930468    
   3300000   1298.3227     -207.62813     -213.50188     -213.50188      5.8737481    
   3400000   1391.1474     -209.7138      -216.00749     -216.00749      6.2936972    
   3500000   1357.0108     -209.70634     -215.8456      -215.8456       6.1392592    
   3600000   1482.192      -209.79855     -216.50414     -216.50414      6.7055923    
   3700000   1463.3709     -206.26565     -212.88609     -212.88609      6.6204436    
   3800000   1549.2605     -205.22774     -212.23676     -212.23676      7.0090173    
   3900000   1553.6903     -207.70965     -214.73871     -214.73871      7.029058     
   4000000   1554.0081     -205.7405      -212.77099     -212.77099      7.030496     
   4100000   1627.7113     -207.71551     -215.07944     -215.07944      7.3639369    
   4200000   1754.3939     -206.23003     -214.1671      -214.1671       7.9370626    
   4300000   1715.4226     -205.95955     -213.7203      -213.7203       7.760752     
   4400000   1803.8611     -206.80029     -214.96114     -214.96114      8.1608573    
   4500000   1758.5981     -205.98698     -213.94306     -213.94306      7.9560826    
   4600000   1804.9491     -203.31695     -211.48273     -211.48273      8.1657793    
   4700000   1940.6278     -205.56634     -214.34594     -214.34594      8.7796043    
   4800000   1844.5886     -203.23869     -211.58381     -211.58381      8.3451125    
   4900000   1916.4932     -201.5508      -210.22121     -210.22121      8.6704166    
   5000000   1955.1625     -201.39376     -210.23912     -210.23912      8.8453607    
   5100000   2064.3101     -202.53127     -211.87043     -211.87043      9.339156     
   5200000   2087.548      -200.59306     -210.03734     -210.03734      9.4442864    
   5300000   2200.3895     -202.58376     -212.53856     -212.53856      9.9547934    
   5400000   2187.3788     -201.37406     -211.26999     -211.26999      9.8959317    
   5500000   2282.7635     -197.35795     -207.68541     -207.68541      10.327462    
   5600000   2144.369      -202.14768     -211.84903     -211.84903      9.7013508    
   5700000   2284.3983     -202.74748     -213.08234     -213.08234      10.334858    
   5800000   2367.545      -198.37972     -209.09074     -209.09074      10.711023    
   5900000   2406.2753     -200.64025     -211.5265      -211.5265       10.886242    
   6000000   2419.2012     -200.24179     -211.18651     -211.18651      10.944721    
   6100000   2433.3364     -202.22939     -213.23806     -213.23806      11.008669    
   6200000   2599.4196     -199.70228     -211.46233     -211.46233      11.760048    
   6300000   2492.1551     -196.65317     -207.92794     -207.92794      11.274771    
   6400000   2557.0816     -195.92721     -207.49572     -207.49572      11.568506    
   6500000   2562.381      -199.36343     -210.95591     -210.95591      11.592481    
   6600000   2665.3444     -198.25942     -210.31772     -210.31772      12.058298    
   6700000   2645.8895     -199.74857     -211.71885     -211.71885      11.970282    
   6800000   2787.214      -196.04666     -208.65631     -208.65631      12.609649    
   6900000   2652.0304     -197.39679     -209.39485     -209.39485      11.998064    
   7000000   2796.5641     -196.94385     -209.5958      -209.5958       12.65195     
   7100000   2842.8331     -197.21101     -210.07228     -210.07228      12.861276    
   7200000   2755.8871     -196.01431     -208.48224     -208.48224      12.467923    
   7300000   3004.2067     -193.16322     -206.75456     -206.75456      13.591347    
   7400000   2919.4936     -191.61897     -204.82706     -204.82706      13.208096    
   7500000   3054.3064     -194.93959     -208.75759     -208.75759      13.818003    
   7600000   3179.4525     -196.18416     -210.56834     -210.56834      14.384177    
   7700000   3112.295      -193.85538     -207.93573     -207.93573      14.08035     
   7800000   3099.6346     -192.92625     -206.94932     -206.94932      14.023072    
   7900000   2993.619      -193.32926     -206.87271     -206.87271      13.543447    
   8000000   3147.3555     -193.04207     -207.28103     -207.28103      14.238967    
   8100000   3103.1295     -193.69487     -207.73375     -207.73375      14.038884    
   8200000   3365.2725     -191.34104     -206.56589     -206.56589      15.224847    
   8300000   3215.2384     -194.34717     -208.89325     -208.89325      14.546077    
   8400000   3420.2498     -194.71893     -210.1925      -210.1925       15.47357     
   8500000   3470.5299     -192.82433     -208.52538     -208.52538      15.701042    
   8600000   3481.55       -192.69314     -208.44404     -208.44404      15.750898    
   8700000   3480.3276     -187.25151     -202.99687     -202.99687      15.745368    
   8800000   3495.8737     -184.68636     -200.50206     -200.50206      15.8157      
   8900000   3451.3479     -188.10686     -203.72112     -203.72112      15.61426     
   9000000   3598.1652     -187.19976     -203.47823     -203.47823      16.278477    
   9100000   3707.6536     -186.91749     -203.69131     -203.69131      16.773814    
   9200000   3614.5713     -187.93338     -204.28608     -204.28608      16.3527      
   9300000   3726.099      -184.33927     -201.19654     -201.19654      16.857263    
   9400000   3671.9304     -183.42669     -200.03889     -200.03889      16.612199    
   9500000   3686.1113     -186.41899     -203.09535     -203.09535      16.676355    
   9600000   3953.8353     -184.52406     -202.41162     -202.41162      17.887566    
   9700000   3813.4138     -176.66611     -193.9184      -193.9184       17.252285    
   9800000   3891.1165     -179.12838     -196.7322      -196.7322       17.60382     
   9900000   3913.6718     -181.7239      -199.42976     -199.42976      17.705863    
  10000000   4016.7998     -186.14537     -204.3178      -204.3178       18.172424    
Loop time of 4662.21 on 1 procs for 10000000 steps with 36 atoms

Performance: 18.532 ns/day, 1.295 hours/ns, 2144.904 timesteps/s, 77.217 katom-step/s
99.9% CPU use with 1 MPI tasks x 1 OpenMP threads

MPI task timing breakdown:
Section |  min time  |  avg time  |  max time  |%varavg| %total
---------------------------------------------------------------
Pair    | 4484.6     | 4484.6     | 4484.6     |   0.0 | 96.19
Neigh   | 24.376     | 24.376     | 24.376     |   0.0 |  0.52
Comm    | 20.707     | 20.707     | 20.707     |   0.0 |  0.44
Output  | 1.2326     | 1.2326     | 1.2326     |   0.0 |  0.03
Modify  | 106.65     | 106.65     | 106.65     |   0.0 |  2.29
Other   |            | 24.6       |            |       |  0.53

Nlocal:             36 ave          36 max          36 min
Histogram: 1 0 0 0 0 0 0 0 0 0
Nghost:             62 ave          62 max          62 min
Histogram: 1 0 0 0 0 0 0 0 0 0
Neighs:              0 ave           0 max           0 min
Histogram: 1 0 0 0 0 0 0 0 0 0
FullNghs:         1160 ave        1160 max        1160 min
Histogram: 1 0 0 0 0 0 0 0 0 0

Total # of neighbors = 1160
Ave neighs/atom = 32.222222
Neighbor list builds = 228080
Dangerous builds = 3
write_restart 	./endconf/endconf*1.restart
System init for write_restart ...

#==============Constant Temp Phase==================

# Minimize during the constant temperature phase
min_style       sd
minimize        1.0e-5 1.0e-7 500 1000
Per MPI rank memory allocation (min/avg/max) = 6.262 | 6.262 | 6.262 Mbytes
   Step          Temp          TotEng         E_pair         PotEng         KinEng    
  10000000   4016.7998     -186.14537     -204.3178      -204.3178       18.172424    
  10000069   4016.7998     -202.11979     -220.29222     -220.29222      18.172424    
Loop time of 0.0584809 on 1 procs for 69 steps with 36 atoms

88.7% CPU use with 1 MPI tasks x 1 OpenMP threads

Minimization stats:
  Stopping criterion = energy tolerance
  Energy initial, next-to-last, final = 
     -204.317797739301  -220.290113502913  -220.292218141711
  Force two-norm initial, final = 34.365916 0.69390558
  Force max component initial, final = 9.4111736 0.36317434
  Final line search alpha, max atom move = 0.524277 0.19040396
  Iterations, force evaluations = 69 136

MPI task timing breakdown:
Section |  min time  |  avg time  |  max time  |%varavg| %total
---------------------------------------------------------------
Pair    | 0.044497   | 0.044497   | 0.044497   |   0.0 | 76.09
Neigh   | 0.0047303  | 0.0047303  | 0.0047303  |   0.0 |  8.09
Comm    | 0.0003928  | 0.0003928  | 0.0003928  |   0.0 |  0.67
Output  | 0          | 0          | 0          |   0.0 |  0.00
Modify  | 0          | 0          | 0          |   0.0 |  0.00
Other   |            | 0.008861   |            |       | 15.15

Nlocal:             36 ave          36 max          36 min
Histogram: 1 0 0 0 0 0 0 0 0 0
Nghost:             58 ave          58 max          58 min
Histogram: 1 0 0 0 0 0 0 0 0 0
Neighs:              0 ave           0 max           0 min
Histogram: 1 0 0 0 0 0 0 0 0 0
FullNghs:         1166 ave        1166 max        1166 min
Histogram: 1 0 0 0 0 0 0 0 0 0

Total # of neighbors = 1166
Ave neighs/atom = 32.388889
Neighbor list builds = 43
Dangerous builds = 0

unfix 			2
fix 			4 all temp/berendsen ${tempchauf} ${tempchauf} ${Tdamp}
fix 			4 all temp/berendsen 4000 ${tempchauf} ${Tdamp}
fix 			4 all temp/berendsen 4000 4000 ${Tdamp}
fix 			4 all temp/berendsen 4000 4000 0.001

run 			${iterther}
run 			1000000
Per MPI rank memory allocation (min/avg/max) = 5.137 | 5.137 | 5.137 Mbytes
   Step          Temp          TotEng         E_pair         PotEng         KinEng    
  10000069   4016.7998     -202.11979     -220.29222     -220.29222      18.172424    
  10100000   3982.002      -181.98945     -200.00444     -200.00444      18.014996    
  10200000   4017.4128     -190.25287     -208.42807     -208.42807      18.175197    
  10300000   3912.2994     -179.83224     -197.53189     -197.53189      17.699654    
  10400000   4062.554      -181.58463     -199.96405     -199.96405      18.379421    
  10500000   3984.1251     -178.58114     -196.60574     -196.60574      18.024601    
  10600000   3949.8998     -180.81146     -198.68122     -198.68122      17.869762    
  10700000   3875.7639     -173.47872     -191.01309     -191.01309      17.534363    
  10800000   4017.5053     -180.70642     -198.88204     -198.88204      18.175616    
  10900000   3899.2684     -186.21537     -203.85607     -203.85607      17.6407      
  11000000   3886.714      -185.98349     -203.5674      -203.5674       17.583903    
  11000069   3821.907      -183.74382     -201.03453     -201.03453      17.290709    
Loop time of 395.244 on 1 procs for 1000000 steps with 36 atoms

Performance: 21.860 ns/day, 1.098 hours/ns, 2530.082 timesteps/s, 91.083 katom-step/s
99.9% CPU use with 1 MPI tasks x 1 OpenMP threads

MPI task timing breakdown:
Section |  min time  |  avg time  |  max time  |%varavg| %total
---------------------------------------------------------------
Pair    | 376.56     | 376.56     | 376.56     |   0.0 | 95.27
Neigh   | 3.5902     | 3.5902     | 3.5902     |   0.0 |  0.91
Comm    | 2.1332     | 2.1332     | 2.1332     |   0.0 |  0.54
Output  | 0.089033   | 0.089033   | 0.089033   |   0.0 |  0.02
Modify  | 10.167     | 10.167     | 10.167     |   0.0 |  2.57
Other   |            | 2.703      |            |       |  0.68

Nlocal:             36 ave          36 max          36 min
Histogram: 1 0 0 0 0 0 0 0 0 0
Nghost:             41 ave          41 max          41 min
Histogram: 1 0 0 0 0 0 0 0 0 0
Neighs:              0 ave           0 max           0 min
Histogram: 1 0 0 0 0 0 0 0 0 0
FullNghs:         1242 ave        1242 max        1242 min
Histogram: 1 0 0 0 0 0 0 0 0 0

Total # of neighbors = 1242
Ave neighs/atom = 34.5
Neighbor list builds = 34246
Dangerous builds = 0
write_restart 	./endconf/endconf*2.restart
System init for write_restart ...

#=================Cooling Phase=====================

# Re-minimize before cooling
#min_style       sd
#minimize        1.0e-5 1.0e-7 500 1000

unfix 			4
fix 			5 all temp/berendsen ${tempchauf} 0.0 ${Tdamp}
fix 			5 all temp/berendsen 4000 0.0 ${Tdamp}
fix 			5 all temp/berendsen 4000 0.0 0.001

run 			${iter}
run 			10000000
Per MPI rank memory allocation (min/avg/max) = 5.137 | 5.137 | 5.137 Mbytes
   Step          Temp          TotEng         E_pair         PotEng         KinEng    
  11000069   3821.907      -183.74382     -201.03453     -201.03453      17.290709    
  11100000   3908.5893     -180.616       -198.29887     -198.29887      17.682869    
  11200000   3914.9137     -184.12507     -201.83655     -201.83655      17.711481    
  11300000   3802.4536     -182.37582     -199.57851     -199.57851      17.202699    
  11400000   3731.7791     -185.19214     -202.0751      -202.0751       16.882961    
  11500000   3724.4266     -188.26917     -205.11887     -205.11887      16.849697    
  11600000   3861.8951     -185.50634     -202.97796     -202.97796      17.471619    
  11700000   3690.8062     -184.85533     -201.55293     -201.55293      16.697595    
  11800000   3784.0263     -181.95685     -199.07618     -199.07618      17.119333    
  11900000   3648.7109     -183.7669      -200.27405     -200.27405      16.507151    
  12000000   3536.0822     -183.63823     -199.63584     -199.63584      15.997607    
  12100000   3620.6973     -186.15758     -202.53799     -202.53799      16.380415    
  12200000   3618.3156     -182.06545     -198.43509     -198.43509      16.36964     
  12300000   3520.0749     -186.9444      -202.86958     -202.86958      15.925189    
  12400000   3556.3119     -189.66918     -205.75831     -205.75831      16.089129    
  12500000   3368.6053     -189.10124     -204.34117     -204.34117      15.239924    
  12600000   3348.0688     -192.69024     -207.83726     -207.83726      15.147015    
  12700000   3215.7094     -189.34402     -203.89223     -203.89223      14.548207    
  12800000   3341.5534     -192.40833     -207.52587     -207.52587      15.117539    
  12900000   3162.6749     -190.76333     -205.0716      -205.0716       14.308273    
  13000000   3154.9481     -188.65349     -202.9268      -202.9268       14.273317    
  13100000   3149.1025     -196.6244      -210.87127     -210.87127      14.246871    
  13200000   3255.7285     -192.98828     -207.71754     -207.71754      14.729258    
  13300000   2842.0714     -197.5301      -210.38793     -210.38793      12.85783     
  13400000   2950.6832     -198.15307     -211.50227     -211.50227      13.349201    
  13500000   3111.3003     -195.45379     -209.52964     -209.52964      14.07585     
  13600000   2937.6544     -201.97737     -215.26762     -215.26762      13.290257    
  13700000   2963.2238     -197.2182      -210.62414     -210.62414      13.405936    
  13800000   2887.6955     -199.63277     -212.697       -212.697        13.064238    
  13900000   2857.0439     -200.42766     -213.35323     -213.35323      12.925567    
  14000000   2876.0711     -203.9276      -216.93925     -216.93925      13.011648    
  14100000   2701.7338     -206.24308     -218.46601     -218.46601      12.222928    
  14200000   2683.369      -203.35545     -215.4953      -215.4953       12.139843    
  14300000   2685.8354     -204.93561     -217.08661     -217.08661      12.151002    
  14400000   2588.0376     -206.15242     -217.86098     -217.86098      11.708554    
  14500000   2612.427      -204.64677     -216.46566     -216.46566      11.818894    
  14600000   2677.191      -205.3475      -217.45939     -217.45939      12.111894    
  14700000   2397.7314     -205.98839     -216.83598     -216.83598      10.847589    
  14800000   2386.3497     -203.53319     -214.32928     -214.32928      10.796097    
  14900000   2427.3072     -210.43414     -221.41553     -221.41553      10.981393    
  15000000   2350.4896     -208.80749     -219.44136     -219.44136      10.633862    
  15100000   2383.3355     -206.59021     -217.37267     -217.37267      10.78246     
  15200000   2255.3473     -207.19982     -217.40324     -217.40324      10.203428    
  15300000   2249.7175     -205.60958     -215.78754     -215.78754      10.177958    
  15400000   2313.0823     -207.68538     -218.15        -218.15         10.464628    
  15500000   2296.6608     -208.4289      -218.81923     -218.81923      10.390335    
  15600000   2159.0986     -206.68243     -216.45042     -216.45042      9.7679887    
  15700000   2127.6194     -209.19722     -218.8228      -218.8228       9.6255738    
  15800000   2078.7959     -210.3285      -219.73319     -219.73319      9.404691     
  15900000   2038.7692     -211.52626     -220.74986     -220.74986      9.2236062    
  16000000   2007.0673     -208.34778     -217.42796     -217.42796      9.0801833    
  16100000   1887.8037     -208.70134     -217.24197     -217.24197      8.5406225    
  16200000   1892.9753     -212.58777     -221.15179     -221.15179      8.5640191    
  16300000   1889.4396     -208.61321     -217.16123     -217.16123      8.5480235    
  16400000   1815.5099     -209.89013     -218.10369     -218.10369      8.2135576    
  16500000   1850.6157     -208.24835     -216.62073     -216.62073      8.3723798    
  16600000   1725.2032     -213.45495     -221.25995     -221.25995      7.8050007    
  16700000   1730.4672     -211.57377     -219.40258     -219.40258      7.8288154    
  16800000   1651.6967     -212.45766     -219.93011     -219.93011      7.4724493    
  16900000   1639.4792     -210.29165     -217.70882     -217.70882      7.4171761    
  17000000   1546.3841     -211.3886      -218.3846      -218.3846       6.9960043    
  17100000   1502.8809     -211.74022     -218.53941     -218.53941      6.7991913    
  17200000   1524.5596     -213.82695     -220.72422     -220.72422      6.8972679    
  17300000   1419.1747     -213.31082     -219.73132     -219.73132      6.4204955    
  17400000   1449.7627     -214.92069     -221.47956     -221.47956      6.5588788    
  17500000   1375.9486     -214.24989     -220.47482     -220.47482      6.2249361    
  17600000   1347.1732     -215.10072     -221.19547     -221.19547      6.0947531    
  17700000   1290.1411     -218.17882     -224.01556     -224.01556      5.836734     
  17800000   1294.7795     -217.6558      -223.51351     -223.51351      5.8577186    
  17900000   1218.9107     -218.28779     -223.80227     -223.80227      5.51448      
  18000000   1210.6011     -218.0242      -223.50108     -223.50108      5.4768864    
  18100000   1171.147      -218.8506      -224.14899     -224.14899      5.298392     
  18200000   1127.1422     -219.61257     -224.71188     -224.71188      5.0993099    
  18300000   1104.8277     -219.69057     -224.68892     -224.68892      4.9983567    
  18400000   1053.3257     -218.92682     -223.69218     -223.69218      4.7653561    
  18500000   986.2617      -221.20936     -225.67131     -225.67131      4.4619516    
  18600000   974.49924     -219.65143     -224.06017     -224.06017      4.4087369    
  18700000   930.85481     -220.11533     -224.32662     -224.32662      4.2112849    
  18800000   878.54658     -221.2295      -225.20414     -225.20414      3.974637     
  18900000   869.72053     -220.35745     -224.29216     -224.29216      3.934707     
  19000000   810.57392     -220.55656     -224.22368     -224.22368      3.6671216    
  19100000   783.52999     -221.84242     -225.38719     -225.38719      3.544772     
  19200000   715.02089     -221.08205     -224.31688     -224.31688      3.2348296    
  19300000   662.59643     -221.32137     -224.31902     -224.31902      2.9976559    
  19400000   635.39139     -222.45214     -225.32671     -225.32671      2.8745774    
  19500000   603.48055     -222.38827     -225.11848     -225.11848      2.7302094    
  19600000   549.6435      -222.76102     -225.24767     -225.24767      2.486645     
  19700000   519.35915     -222.83413     -225.18376     -225.18376      2.3496354    
  19800000   461.27645     -223.94497     -226.03183     -226.03183      2.0868631    
  19900000   456.55112     -223.53934     -225.60483     -225.60483      2.0654852    
  20000000   411.20651     -223.66164     -225.52198     -225.52198      1.8603415    
  20100000   368.02746     -224.56958     -226.23458     -226.23458      1.6649949    
  20200000   322.33947     -225.40811     -226.8664      -226.8664       1.4582976    
  20300000   283.21854     -225.88664     -227.16795     -227.16795      1.2813104    
  20400000   240.73658     -225.69527     -226.78439     -226.78439      1.0891176    
  20500000   200.22648     -226.55539     -227.46124     -227.46124      0.90584563   
  20600000   150.42893     -226.58891     -227.26946     -227.26946      0.68055627   
  20700000   120.43499     -226.78262     -227.32748     -227.32748      0.54486055   
  20800000   80.308733     -227.15864     -227.52196     -227.52196      0.36332515   
  20900000   40.025084     -227.58829     -227.76937     -227.76937      0.18107768   
  21000000   0.033444686   -228.02683     -228.02698     -228.02698      0.00015130727
  21000069   0.0045033512  -228.027       -228.02702     -228.02702      2.0373634e-05
Loop time of 4014.35 on 1 procs for 10000000 steps with 36 atoms

Performance: 21.523 ns/day, 1.115 hours/ns, 2491.062 timesteps/s, 89.678 katom-step/s
99.9% CPU use with 1 MPI tasks x 1 OpenMP threads

MPI task timing breakdown:
Section |  min time  |  avg time  |  max time  |%varavg| %total
---------------------------------------------------------------
Pair    | 3865.6     | 3865.6     | 3865.6     |   0.0 | 96.29
Neigh   | 21.48      | 21.48      | 21.48      |   0.0 |  0.54
Comm    | 16.408     | 16.408     | 16.408     |   0.0 |  0.41
Output  | 0.94464    | 0.94464    | 0.94464    |   0.0 |  0.02
Modify  | 90.116     | 90.116     | 90.116     |   0.0 |  2.24
Other   |            | 19.85      |            |       |  0.49

Nlocal:             36 ave          36 max          36 min
Histogram: 1 0 0 0 0 0 0 0 0 0
Nghost:             45 ave          45 max          45 min
Histogram: 1 0 0 0 0 0 0 0 0 0
Neighs:              0 ave           0 max           0 min
Histogram: 1 0 0 0 0 0 0 0 0 0
FullNghs:         1212 ave        1212 max        1212 min
Histogram: 1 0 0 0 0 0 0 0 0 0

Total # of neighbors = 1212
Ave neighs/atom = 33.666667
Neighbor list builds = 225902
Dangerous builds = 0
write_restart 	./endconf/endconf*3.restart
System init for write_restart ...

Total wall time: 2:31:12
