LAMMPS (7 Feb 2024 - Update 1)
OMP_NUM_THREADS environment is not set. Defaulting to 1 thread. (src/comm.cpp:98)
  using 1 OpenMP thread(s) per MPI task
#============Initialization=================
units 			metal
atom_style 		atomic
boundary 		p p p

############################################
#              CLI Variables               #
############################################
variable 		seed index 200093          #
variable 		N index 36                 #
variable 		iter index 10000000        #
variable 		iterther index 1000000     #
variable 		iexport index 100000       #
variable 		tempchauf index 3000       #
variable 		Tdamp index 0.001          #
variable 		timestep index 0.0001      #
variable 		box_size index 40		   #
############################################
############################################
#=========Simulation box definition=========
lattice 		sc 1.0
Lattice spacing in x,y,z = 1 1 1
region 			bigbox block 0 ${box_size} 0 ${box_size} 0 ${box_size}
region 			bigbox block 0 40 0 ${box_size} 0 ${box_size}
region 			bigbox block 0 40 0 40 0 ${box_size}
region 			bigbox block 0 40 0 40 0 40
create_box 		1 bigbox
Created orthogonal box = (0 0 0) to (40 40 40)
  1 by 1 by 1 MPI processor grid

#==================Atoms====================
region 			safezone block 6 9 6 9 6 9 units box
create_atoms 	1 random ${N} ${seed} safezone
create_atoms 	1 random 36 ${seed} safezone
create_atoms 	1 random 36 200093 safezone
Created 36 atoms
  using lattice units in orthogonal box = (0 0 0) to (40 40 40)
  create_atoms CPU = 0.001 seconds
labelmap 		atom 1 C
mass 			* 12.01



#==========Velocity initialization==========
velocity 		all create 0.0000001 1563967 rot yes dist gaussian

#======Pair style for atom interactions=============
pair_style 		airebo 1.8 1 1
pair_coeff 		* * CH.airebo C
Reading airebo potential file CH.airebo with DATE: 2011-10-25

#==============Neighbor selection===================
neighbor 		0.3 bin
neigh_modify 	every 1 delay 0 check yes



#==============Custom Wall force====================
#==========Wall with harmonic potential=============
#variable       k equal 10.0

#fix             xlo_wall all wall/harmonic xlo EDGE v_k 1.0 0.7
#fix             xhi_wall all wall/harmonic xhi EDGE v_k 1.0 0.7
#fix             ylo_wall all wall/harmonic ylo EDGE v_k 1.0 0.7
#fix             yhi_wall all wall/harmonic yhi EDGE v_k 1.0 0.7
#fix             zlo_wall all wall/harmonic zlo EDGE v_k 1.0 0.7
#fix             zhi_wall all wall/harmonic zhi EDGE v_k 1.0 0.7



#=====================Timestep======================
timestep 		${timestep}
timestep 		0.0001

#===============Define dump command=================
dump 			1 all cfg 100000 ./dump/dump.tensile_*.cfg mass type xs ys zs vx vy vz id

#========System temperature printing info===========
thermo_style 	custom step temp etotal epair pe ke
thermo 			${iexport}	# 1'000'000
thermo 			100000	



#====================CRC Cycle======================

#=============Condensation et chauffe===============

# Minimize during the heating phase
#min_style       sd
#minimize        1.0e-5 1.0e-7 500 1000

fix 			1 all nve
fix 			2 all temp/berendsen 0.0 ${tempchauf} ${Tdamp}
fix 			2 all temp/berendsen 0.0 3000 ${Tdamp}
fix 			2 all temp/berendsen 0.0 3000 0.001
fix             3 all momentum 1 linear 1 1 1 angular rescale

run 			${iter}
run 			10000000
Neighbor list info ...
  update: every = 1 steps, delay = 0 steps, check = yes
  max neighbors/atom: 2000, page size: 100000
  master list distance cutoff = 8.116371
  ghost atom cutoff = 8.116371
  binsize = 4.0581855, bins = 10 10 10
  1 neighbor lists, perpetual/occasional/extra = 1 0 0
  (1) pair airebo, perpetual
      attributes: full, newton on, ghost
      pair build: full/bin/ghost
      stencil: full/ghost/bin/3d
      bin: standard
Per MPI rank memory allocation (min/avg/max) = 3.889 | 3.889 | 3.889 Mbytes
   Step          Temp          TotEng         E_pair         PotEng         KinEng    
         0   1e-07          81746.008      81746.008      81746.008      4.5241051e-10
    100000   29.145272     -169.2111      -169.34295     -169.34295      0.13185627   
    200000   58.415866     -193.248       -193.51228     -193.51228      0.26427951   
    300000   90.910345     -192.96289     -193.37418     -193.37418      0.41128796   
    400000   120.50685     -192.81466     -193.35985     -193.35985      0.54518565   
    500000   149.96022     -192.71691     -193.39534     -193.39534      0.6784358    
    600000   179.81201     -192.43725     -193.25074     -193.25074      0.81348844   
    700000   205.3841      -196.10758     -197.03676     -197.03676      0.92917925   
    800000   238.66024     -197.47455     -198.55428     -198.55428      1.079724     
    900000   269.72591     -197.00534     -198.22561     -198.22561      1.2202684    
   1000000   298.885       -197.06278     -198.41497     -198.41497      1.3521871    
   1100000   333.67215     -201.93145     -203.44102     -203.44102      1.5095678    
   1200000   354.96245     -205.79741     -207.40329     -207.40329      1.6058874    
   1300000   387.97835     -206.63262     -208.38788     -208.38788      1.7552548    
   1400000   419.56227     -207.30248     -209.20062     -209.20062      1.8981438    
   1500000   450.47461     -207.08298     -209.12097     -209.12097      2.0379945    
   1600000   477.50405     -206.81211     -208.97238     -208.97238      2.1602785    
   1700000   508.80292     -206.56411     -208.86598     -208.86598      2.3018779    
   1800000   541.21276     -205.39907     -207.84757     -207.84757      2.4485034    
   1900000   586.76222     -205.6053      -208.25987     -208.25987      2.6545739    
   2000000   614.24566     -210.50323     -213.28214     -213.28214      2.7789119    
   2100000   632.15827     -210.78284     -213.64279     -213.64279      2.8599504    
   2200000   659.27071     -209.40104     -212.38365     -212.38365      2.9826099    
   2300000   678.80969     -209.64845     -212.71946     -212.71946      3.0710064    
   2400000   722.05306     -209.01371     -212.28035     -212.28035      3.2666439    
   2500000   752.90993     -209.05276     -212.459       -212.459        3.4062436    
   2600000   779.10873     -208.49374     -212.01851     -212.01851      3.5247698    
   2700000   814.62412     -208.47691     -212.16235     -212.16235      3.6854451    
   2800000   842.8835      -207.47231     -211.2856      -211.2856       3.8132935    
   2900000   866.74766     -212.24538     -216.16664     -216.16664      3.9212575    
   3000000   889.11706     -212.16678     -216.18923     -216.18923      4.022459     
   3100000   940.88594     -211.87495     -216.13162     -216.13162      4.2566669    
   3200000   960.71663     -212.63834     -216.98473     -216.98473      4.346383     
   3300000   1014.5753     -212.31153     -216.90158     -216.90158      4.5900453    
   3400000   995.76971     -210.85196     -215.35693     -215.35693      4.5049668    
   3500000   1070.3129     -210.67422     -215.51643     -215.51643      4.8422082    
   3600000   1086.5335     -212.09151     -217.00711     -217.00711      4.9155917    
   3700000   1096.3378     -210.77884     -215.73878     -215.73878      4.9599474    
   3800000   1125.886      -209.76601     -214.85964     -214.85964      5.0936268    
   3900000   1187.875      -209.70748     -215.08156     -215.08156      5.3740711    
   4000000   1178.2658     -208.84453     -214.17513     -214.17513      5.3305982    
   4100000   1253.3874     -210.16496     -215.83541     -215.83541      5.6704563    
   4200000   1227.1992     -210.08239     -215.63437     -215.63437      5.551978     
   4300000   1317.4389     -210.09466     -216.05489     -216.05489      5.9602319    
   4400000   1340.6559     -208.01457     -214.07984     -214.07984      6.0652681    
   4500000   1349.3461     -207.89449     -213.99908     -213.99908      6.1045835    
   4600000   1438.9459     -207.92588     -214.43582     -214.43582      6.5099426    
   4700000   1432.666      -207.39954     -213.88107     -213.88107      6.4815314    
   4800000   1409.0527     -207.70832     -214.08303     -214.08303      6.3747023    
   4900000   1483.6721     -207.04498     -213.75727     -213.75727      6.7122885    
   5000000   1523.7749     -208.62659     -215.52031     -215.52031      6.8937177    
   5100000   1509.5066     -207.7327      -214.56187     -214.56187      6.8291663    
   5200000   1522.6114     -207.97617     -214.86462     -214.86462      6.8884539    
   5300000   1586.0262     -206.61652     -213.79187     -213.79187      7.1753491    
   5400000   1564.4437     -203.28704     -210.36475     -210.36475      7.0777076    
   5500000   1680.3364     -206.35166     -213.95367     -213.95367      7.6020184    
   5600000   1719.5891     -206.65527     -214.43488     -214.43488      7.7796019    
   5700000   1687.0444     -204.57966     -212.21202     -212.21202      7.632366     
   5800000   1774.8546     -202.26499     -210.29462     -210.29462      8.0296286    
   5900000   1813.6101     -204.72261     -212.92757     -212.92757      8.2049625    
   6000000   1819.8842     -205.29226     -213.5256      -213.5256       8.2333475    
   6100000   1858.9078     -206.33623     -214.74612     -214.74612      8.4098942    
   6200000   1870.9785     -204.88423     -213.34873     -213.34873      8.4645034    
   6300000   1922.4284     -204.031       -212.72827     -212.72827      8.697268     
   6400000   1925.2249     -205.42011     -214.13003     -214.13003      8.7099198    
   6500000   1993.1245     -203.35829     -212.3754      -212.3754       9.0171046    
   6600000   2000.1286     -204.2861      -213.33489     -213.33489      9.0487922    
   6700000   1991.4875     -201.72613     -210.73583     -210.73583      9.0096988    
   6800000   2066.9907     -200.9053      -210.25658     -210.25658      9.3512829    
   6900000   2020.6922     -201.70889     -210.85071     -210.85071      9.1418239    
   7000000   2061.3203     -202.13252     -211.45815     -211.45815      9.3256296    
   7100000   2163.2377     -202.3825      -212.16921     -212.16921      9.7867145    
   7200000   2139.6183     -203.80005     -213.47991     -213.47991      9.6798581    
   7300000   2201.9717     -200.82459     -210.78655     -210.78655      9.9619512    
   7400000   2280.4619     -201.10302     -211.42007     -211.42007      10.317049    
   7500000   2300.4216     -200.13028     -210.53763     -210.53763      10.407349    
   7600000   2268.8116     -202.05834     -212.32268     -212.32268      10.264342    
   7700000   2291.7313     -201.80895     -212.17699     -212.17699      10.368033    
   7800000   2420.0592     -198.27263     -209.22124     -209.22124      10.948602    
   7900000   2333.0496     -200.42196     -210.97692     -210.97692      10.554962    
   8000000   2388.1294     -199.31486     -210.11901     -210.11901      10.804149    
   8100000   2317.523      -199.37511     -209.85983     -209.85983      10.484718    
   8200000   2469.0666     -198.82889     -209.99921     -209.99921      11.170317    
   8300000   2411.1257     -198.69035     -209.59853     -209.59853      10.908186    
   8400000   2487.0146     -197.99512     -209.24664     -209.24664      11.251516    
   8500000   2512.3084     -197.25308     -208.61903     -208.61903      11.365947    
   8600000   2602.3839     -196.71106     -208.48452     -208.48452      11.773458    
   8700000   2653.5512     -197.33143     -209.33637     -209.33637      12.004944    
   8800000   2633.9436     -197.75251     -209.66874     -209.66874      11.916238    
   8900000   2683.7093     -196.25641     -208.3978      -208.3978       12.141383    
   9000000   2718.9809     -198.025       -210.32595     -210.32595      12.300955    
   9100000   2726.699      -198.75627     -211.09214     -211.09214      12.335873    
   9200000   2769.177      -197.18135     -209.7094      -209.7094       12.528048    
   9300000   2848.1259     -195.21986     -208.10508     -208.10508      12.885221    
   9400000   2843.0587     -195.41637     -208.27867     -208.27867      12.862296    
   9500000   2731.6415     -196.95906     -209.31729     -209.31729      12.358233    
   9600000   2890.5417     -193.56769     -206.6448      -206.6448       13.077114    
   9700000   2863.7591     -195.1043      -208.06024     -208.06024      12.955947    
   9800000   2919.3571     -195.99468     -209.20216     -209.20216      13.207478    
   9900000   3002.1696     -195.15976     -208.74189     -208.74189      13.582131    
  10000000   2916.0086     -193.02213     -206.21446     -206.21446      13.19233     
Loop time of 1192.45 on 1 procs for 10000000 steps with 36 atoms

Performance: 72.456 ns/day, 0.331 hours/ns, 8386.103 timesteps/s, 301.900 katom-step/s
99.8% CPU use with 1 MPI tasks x 1 OpenMP threads

MPI task timing breakdown:
Section |  min time  |  avg time  |  max time  |%varavg| %total
---------------------------------------------------------------
Pair    | 1072.3     | 1072.3     | 1072.3     |   0.0 | 89.93
Neigh   | 14.566     | 14.566     | 14.566     |   0.0 |  1.22
Comm    | 12.011     | 12.011     | 12.011     |   0.0 |  1.01
Output  | 0.94133    | 0.94133    | 0.94133    |   0.0 |  0.08
Modify  | 78.141     | 78.141     | 78.141     |   0.0 |  6.55
Other   |            | 14.45      |            |       |  1.21

Nlocal:             36 ave          36 max          36 min
Histogram: 1 0 0 0 0 0 0 0 0 0
Nghost:             27 ave          27 max          27 min
Histogram: 1 0 0 0 0 0 0 0 0 0
Neighs:              0 ave           0 max           0 min
Histogram: 1 0 0 0 0 0 0 0 0 0
FullNghs:          436 ave         436 max         436 min
Histogram: 1 0 0 0 0 0 0 0 0 0

Total # of neighbors = 436
Ave neighs/atom = 12.111111
Neighbor list builds = 203458
Dangerous builds = 18
write_restart 	./endconf/endconf*1.restart
System init for write_restart ...

#==============Constant Temp Phase==================

# Minimize during the constant temperature phase
min_style       sd
minimize        1.0e-5 1.0e-7 500 1000
Per MPI rank memory allocation (min/avg/max) = 6.267 | 6.267 | 6.267 Mbytes
   Step          Temp          TotEng         E_pair         PotEng         KinEng    
  10000000   2916.0086     -193.02213     -206.21446     -206.21446      13.19233     
  10000057   2916.0086     -205.08765     -218.27998     -218.27998      13.19233     
Loop time of 0.0801875 on 1 procs for 57 steps with 36 atoms

92.7% CPU use with 1 MPI tasks x 1 OpenMP threads

Minimization stats:
  Stopping criterion = energy tolerance
  Energy initial, next-to-last, final = 
     -206.214463531966  -218.278970969817  -218.279977134796
  Force two-norm initial, final = 30.614206 0.60356616
  Force max component initial, final = 10.610964 0.21873906
  Final line search alpha, max atom move = 0.0302391 0.0066144723
  Iterations, force evaluations = 57 240

MPI task timing breakdown:
Section |  min time  |  avg time  |  max time  |%varavg| %total
---------------------------------------------------------------
Pair    | 0.06966    | 0.06966    | 0.06966    |   0.0 | 86.87
Neigh   | 0.0022281  | 0.0022281  | 0.0022281  |   0.0 |  2.78
Comm    | 0.0004124  | 0.0004124  | 0.0004124  |   0.0 |  0.51
Output  | 0          | 0          | 0          |   0.0 |  0.00
Modify  | 0          | 0          | 0          |   0.0 |  0.00
Other   |            | 0.007887   |            |       |  9.84

Nlocal:             36 ave          36 max          36 min
Histogram: 1 0 0 0 0 0 0 0 0 0
Nghost:             28 ave          28 max          28 min
Histogram: 1 0 0 0 0 0 0 0 0 0
Neighs:              0 ave           0 max           0 min
Histogram: 1 0 0 0 0 0 0 0 0 0
FullNghs:          444 ave         444 max         444 min
Histogram: 1 0 0 0 0 0 0 0 0 0

Total # of neighbors = 444
Ave neighs/atom = 12.333333
Neighbor list builds = 36
Dangerous builds = 0

unfix 			2
fix 			4 all temp/berendsen ${tempchauf} ${tempchauf} ${Tdamp}
fix 			4 all temp/berendsen 3000 ${tempchauf} ${Tdamp}
fix 			4 all temp/berendsen 3000 3000 ${Tdamp}
fix 			4 all temp/berendsen 3000 3000 0.001

run 			${iterther}
run 			1000000
Per MPI rank memory allocation (min/avg/max) = 5.142 | 5.142 | 5.142 Mbytes
   Step          Temp          TotEng         E_pair         PotEng         KinEng    
  10000057   2916.0086     -205.08765     -218.27998     -218.27998      13.19233     
  10100000   2971.5544     -195.4097      -208.85333     -208.85333      13.443624    
  10200000   2959.1667     -195.5583      -208.94588     -208.94588      13.387581    
  10300000   2941.0633     -192.2364      -205.54208     -205.54208      13.305679    
  10400000   3183.4427     -191.46833     -205.87056     -205.87056      14.402229    
  10500000   3007.9986     -195.34933     -208.95783     -208.95783      13.608502    
  10600000   2967.4146     -195.82807     -209.25297     -209.25297      13.424895    
  10700000   2983.0612     -197.99097     -211.48665     -211.48665      13.495682    
  10800000   2976.5571     -196.58613     -210.05238     -210.05238      13.466257    
  10900000   2991.0286     -194.03402     -207.56574     -207.56574      13.531728    
  11000000   3015.8719     -195.23404     -208.87816     -208.87816      13.644121    
  11000057   2994.4041     -195.25463     -208.80163     -208.80163      13.546999    
Loop time of 105.198 on 1 procs for 1000000 steps with 36 atoms

Performance: 82.131 ns/day, 0.292 hours/ns, 9505.890 timesteps/s, 342.212 katom-step/s
99.7% CPU use with 1 MPI tasks x 1 OpenMP threads

MPI task timing breakdown:
Section |  min time  |  avg time  |  max time  |%varavg| %total
---------------------------------------------------------------
Pair    | 94.658     | 94.658     | 94.658     |   0.0 | 89.98
Neigh   | 1.8142     | 1.8142     | 1.8142     |   0.0 |  1.72
Comm    | 0.93739    | 0.93739    | 0.93739    |   0.0 |  0.89
Output  | 0.090318   | 0.090318   | 0.090318   |   0.0 |  0.09
Modify  | 6.5078     | 6.5078     | 6.5078     |   0.0 |  6.19
Other   |            | 1.19       |            |       |  1.13

Nlocal:             36 ave          36 max          36 min
Histogram: 1 0 0 0 0 0 0 0 0 0
Nghost:             31 ave          31 max          31 min
Histogram: 1 0 0 0 0 0 0 0 0 0
Neighs:              0 ave           0 max           0 min
Histogram: 1 0 0 0 0 0 0 0 0 0
FullNghs:          450 ave         450 max         450 min
Histogram: 1 0 0 0 0 0 0 0 0 0

Total # of neighbors = 450
Ave neighs/atom = 12.5
Neighbor list builds = 29852
Dangerous builds = 0
write_restart 	./endconf/endconf*2.restart
System init for write_restart ...

#=================Cooling Phase=====================

# Re-minimize before cooling
#min_style       sd
#minimize        1.0e-5 1.0e-7 500 1000

unfix 			4
fix 			5 all temp/berendsen ${tempchauf} 0.0 ${Tdamp}
fix 			5 all temp/berendsen 3000 0.0 ${Tdamp}
fix 			5 all temp/berendsen 3000 0.0 0.001

run 			${iter}
run 			10000000
Per MPI rank memory allocation (min/avg/max) = 5.142 | 5.142 | 5.142 Mbytes
   Step          Temp          TotEng         E_pair         PotEng         KinEng    
  11000057   2994.4041     -195.25463     -208.80163     -208.80163      13.546999    
  11100000   2977.1577     -195.44777     -208.91675     -208.91675      13.468974    
  11200000   2959.2757     -193.46441     -206.85249     -206.85249      13.388074    
  11300000   3002.064      -196.96195     -210.5436      -210.5436       13.581653    
  11400000   2847.3658     -194.07672     -206.95851     -206.95851      12.881782    
  11500000   2812.0273     -195.46387     -208.18577     -208.18577      12.721907    
  11600000   2884.6209     -197.37336     -210.42369     -210.42369      13.050328    
  11700000   2695.4645     -194.02351     -206.21808     -206.21808      12.194564    
  11800000   2825.128      -198.73234     -211.51351     -211.51351      12.781176    
  11900000   2709.2714     -196.67537     -208.9324      -208.9324       12.257028    
  12000000   2764.4664     -196.00414     -208.51087     -208.51087      12.506736    
  12100000   2723.7301     -197.88366     -210.2061      -210.2061       12.322441    
  12200000   2687.162      -197.37403     -209.53104     -209.53104      12.157003    
  12300000   2622.436      -197.47053     -209.33471     -209.33471      11.864176    
  12400000   2573.8001     -196.34765     -207.99179     -207.99179      11.644142    
  12500000   2517.1681     -200.38491     -211.77285     -211.77285      11.387933    
  12600000   2474.1301     -196.85622     -208.04945     -208.04945      11.193225    
  12700000   2522.8283     -199.98326     -211.3968      -211.3968       11.41354     
  12800000   2504.4766     -198.83688     -210.1674      -210.1674       11.330515    
  12900000   2439.7544     -198.17295     -209.21066     -209.21066      11.037705    
  13000000   2415.6716     -199.31286     -210.24161     -210.24161      10.928752    
  13100000   2354.7326     -200.91015     -211.56321     -211.56321      10.653058    
  13200000   2328.0958     -200.77033     -211.30288     -211.30288      10.53255     
  13300000   2263.8005     -200.2324      -210.47407     -210.47407      10.241671    
  13400000   2241.0727     -199.70306     -209.84191     -209.84191      10.138849    
  13500000   2212.3605     -198.66829     -208.67724     -208.67724      10.008951    
  13600000   2152.341      -203.71275     -213.45017     -213.45017      9.7374168    
  13700000   2221.2442     -201.04318     -211.09232     -211.09232      10.049142    
  13800000   2154.6655     -201.24916     -210.9971      -210.9971       9.747933     
  13900000   2118.9221     -202.44069     -212.02692     -212.02692      9.5862264    
  14000000   2088.9119     -202.74217     -212.19263     -212.19263      9.450457     
  14100000   2062.7265     -199.90947     -209.24146     -209.24146      9.3319915    
  14200000   2045.8543     -200.97583     -210.23149     -210.23149      9.2556597    
  14300000   1996.2784     -202.65907     -211.69045     -211.69045      9.0313733    
  14400000   1992.0902     -203.817       -212.82943     -212.82943      9.0124254    
  14500000   1883.5201     -200.60945     -209.13069     -209.13069      8.521243     
  14600000   2003.9168     -200.81004     -209.87597     -209.87597      9.0659303    
  14700000   1884.9723     -203.68676     -212.21457     -212.21457      8.5278129    
  14800000   1844.2678     -205.34831     -213.69197     -213.69197      8.3436613    
  14900000   1810.6624     -205.81054     -214.00217     -214.00217      8.1916269    
  15000000   1816.0495     -206.68331     -214.89931     -214.89931      8.2159987    
  15100000   1767.1685     -205.44238     -213.43724     -213.43724      7.9948562    
  15200000   1746.7487     -204.10861     -212.01108     -212.01108      7.9024749    
  15300000   1665.6598     -204.97611     -212.51173     -212.51173      7.53562      
  15400000   1708.9185     -206.02106     -213.75239     -213.75239      7.7313267    
  15500000   1697.014      -206.6105      -214.28797     -214.28797      7.6774696    
  15600000   1638.0866     -205.79243     -213.20331     -213.20331      7.4108757    
  15700000   1617.0316     -207.08488     -214.4005      -214.4005       7.3156208    
  15800000   1572.6776     -206.38198     -213.49694     -213.49694      7.1149589    
  15900000   1526.9494     -208.02878     -214.93686     -214.93686      6.9080797    
  16000000   1510.6446     -206.87258     -213.7069      -213.7069       6.834315     
  16100000   1450.6968     -207.495       -214.0581      -214.0581       6.5631046    
  16200000   1411.8419     -207.05893     -213.44625     -213.44625      6.3873209    
  16300000   1426.9575     -206.98088     -213.43658     -213.43658      6.4557057    
  16400000   1397.9603     -208.17453     -214.49905     -214.49905      6.3245194    
  16500000   1348.4119     -207.71037     -213.81073     -213.81073      6.1003573    
  16600000   1310.3898     -207.91156     -213.8399      -213.8399       5.9283412    
  16700000   1307.2196     -209.00944     -214.92344     -214.92344      5.9139989    
  16800000   1277.6191     -209.13122     -214.91131     -214.91131      5.7800831    
  16900000   1198.7167     -208.36371     -213.78683     -213.78683      5.4231205    
  17000000   1196.7885     -211.09794     -216.51233     -216.51233      5.4143972    
  17100000   1209.5929     -209.59755     -215.06988     -215.06988      5.4723253    
  17200000   1135.826      -209.13905     -214.27765     -214.27765      5.1385963    
  17300000   1117.3776     -210.42787     -215.48301     -215.48301      5.0551336    
  17400000   1078.0658     -211.28352     -216.16081     -216.16081      4.8772831    
  17500000   1037.9607     -210.506       -215.20185     -215.20185      4.6958434    
  17600000   1037.6319     -210.69225     -215.3866      -215.3866       4.6943558    
  17700000   967.94716     -211.22636     -215.60545     -215.60545      4.3790946    
  17800000   985.66831     -210.18554     -214.64481     -214.64481      4.459267     
  17900000   932.23301     -212.63827     -216.85579     -216.85579      4.2175201    
  18000000   899.8969      -212.12205     -216.19327     -216.19327      4.0712281    
  18100000   871.53205     -212.23986     -216.18276     -216.18276      3.9429026    
  18200000   855.89035     -212.56626     -216.43839     -216.43839      3.8721379    
  18300000   804.91776     -212.33646     -215.978       -215.978        3.6415325    
  18400000   756.09165     -212.90206     -216.32269     -216.32269      3.4206381    
  18500000   754.94475     -214.37862     -217.79407     -217.79407      3.4154494    
  18600000   730.63755     -212.69819     -216.00367     -216.00367      3.3054811    
  18700000   705.66354     -213.75764     -216.95014     -216.95014      3.192496     
  18800000   647.08926     -213.91926     -216.84676     -216.84676      2.9274998    
  18900000   649.48671     -214.2094      -217.14775     -217.14775      2.9383461    
  19000000   588.4069      -214.15943     -216.82145     -216.82145      2.6620146    
  19100000   557.0132      -215.67103     -218.19102     -218.19102      2.5199862    
  19200000   543.61771     -215.26169     -217.72107     -217.72107      2.4593836    
  19300000   512.69313     -215.13499     -217.45446     -217.45446      2.3194776    
  19400000   466.94962     -214.64968     -216.7622      -216.7622       2.1125292    
  19500000   456.19679     -215.11909     -217.18297     -217.18297      2.0638822    
  19600000   419.69016     -215.40642     -217.30515     -217.30515      1.8987224    
  19700000   390.44612     -216.2287      -217.99512     -217.99512      1.7664193    
  19800000   357.21359     -217.13886     -218.75493     -218.75493      1.6160718    
  19900000   337.20158     -217.16787     -218.6934      -218.6934       1.5255354    
  20000000   301.8606      -216.65753     -218.02318     -218.02318      1.3656491    
  20100000   272.49722     -217.6006      -218.83341     -218.83341      1.2328061    
  20200000   242.92674     -218.33633     -219.43535     -219.43535      1.0990261    
  20300000   206.52508     -218.76366     -219.69801     -219.69801      0.93434117   
  20400000   179.59627     -219.06371     -219.87623     -219.87623      0.8125124    
  20500000   143.36037     -218.24461     -218.89319     -218.89319      0.6485774    
  20600000   121.28869     -219.36124     -219.90996     -219.90996      0.54872278   
  20700000   89.033189     -219.60839     -220.01118     -220.01118      0.4027955    
  20800000   60.265597     -219.83641     -220.10906     -220.10906      0.27264789   
  20900000   30.453055     -220.20343     -220.34121     -220.34121      0.13777282   
  21000000   0.020869665   -220.5432      -220.54329     -220.54329      9.4416557e-05
  21000057   0.004165583   -220.54332     -220.54334     -220.54334      1.8845535e-05
Loop time of 1050.1 on 1 procs for 10000000 steps with 36 atoms

Performance: 82.278 ns/day, 0.292 hours/ns, 9522.901 timesteps/s, 342.824 katom-step/s
99.8% CPU use with 1 MPI tasks x 1 OpenMP threads

MPI task timing breakdown:
Section |  min time  |  avg time  |  max time  |%varavg| %total
---------------------------------------------------------------
Pair    | 951.76     | 951.76     | 951.76     |   0.0 | 90.64
Neigh   | 11.864     | 11.864     | 11.864     |   0.0 |  1.13
Comm    | 8.6378     | 8.6378     | 8.6378     |   0.0 |  0.82
Output  | 0.86349    | 0.86349    | 0.86349    |   0.0 |  0.08
Modify  | 66.051     | 66.051     | 66.051     |   0.0 |  6.29
Other   |            | 10.93      |            |       |  1.04

Nlocal:             36 ave          36 max          36 min
Histogram: 1 0 0 0 0 0 0 0 0 0
Nghost:             28 ave          28 max          28 min
Histogram: 1 0 0 0 0 0 0 0 0 0
Neighs:              0 ave           0 max           0 min
Histogram: 1 0 0 0 0 0 0 0 0 0
FullNghs:          432 ave         432 max         432 min
Histogram: 1 0 0 0 0 0 0 0 0 0

Total # of neighbors = 432
Ave neighs/atom = 12
Neighbor list builds = 199127
Dangerous builds = 0
write_restart 	./endconf/endconf*3.restart
System init for write_restart ...

Total wall time: 0:39:08
