LAMMPS (7 Feb 2024 - Update 1)
OMP_NUM_THREADS environment is not set. Defaulting to 1 thread. (src/comm.cpp:98)
  using 1 OpenMP thread(s) per MPI task
#============Initialization=================
units 			metal
atom_style 		atomic
boundary 		p p p

############################################
#              CLI Variables               #
############################################
variable 		seed index 200093          #
variable 		N index 36                 #
variable 		iter index 10000000        #
variable 		iterther index 1000000     #
variable 		iexport index 100000       #
variable 		tempchauf index 3000       #
variable 		Tdamp index 0.001          #
variable 		timestep index 0.0001      #
variable 		box_size index 40		   #
############################################
############################################
#=========Simulation box definition=========
lattice 		sc 1.0
Lattice spacing in x,y,z = 1 1 1
region 			bigbox block 0 ${box_size} 0 ${box_size} 0 ${box_size}
region 			bigbox block 0 40 0 ${box_size} 0 ${box_size}
region 			bigbox block 0 40 0 40 0 ${box_size}
region 			bigbox block 0 40 0 40 0 40
create_box 		1 bigbox
Created orthogonal box = (0 0 0) to (40 40 40)
  1 by 1 by 1 MPI processor grid

#==================Atoms====================
region 			safezone block 27 30 27 30 27 30 units box
create_atoms 	1 random ${N} ${seed} safezone
create_atoms 	1 random 36 ${seed} safezone
create_atoms 	1 random 36 200093 safezone
Created 36 atoms
  using lattice units in orthogonal box = (0 0 0) to (40 40 40)
  create_atoms CPU = 0.000 seconds
labelmap 		atom 1 C
mass 			* 12.01



#==========Velocity initialization==========
velocity 		all create 0.0000001 1563967 rot yes dist gaussian

#======Pair style for atom interactions=============
pair_style 		airebo 1.8 1 1
pair_coeff 		* * CH.airebo C
Reading airebo potential file CH.airebo with DATE: 2011-10-25

#==============Neighbor selection===================
neighbor 		0.3 bin
neigh_modify 	every 1 delay 0 check yes



#==============Custom Wall force====================
#==========Wall with harmonic potential=============
#variable       k equal 10.0

#fix             xlo_wall all wall/harmonic xlo EDGE v_k 1.0 0.7
#fix             xhi_wall all wall/harmonic xhi EDGE v_k 1.0 0.7
#fix             ylo_wall all wall/harmonic ylo EDGE v_k 1.0 0.7
#fix             yhi_wall all wall/harmonic yhi EDGE v_k 1.0 0.7
#fix             zlo_wall all wall/harmonic zlo EDGE v_k 1.0 0.7
#fix             zhi_wall all wall/harmonic zhi EDGE v_k 1.0 0.7



#=====================Timestep======================
timestep 		${timestep}
timestep 		0.0001

#===============Define dump command=================
dump 			1 all cfg 100000 ./dump/dump.tensile_*.cfg mass type xs ys zs vx vy vz id

#========System temperature printing info===========
thermo_style 	custom step temp etotal epair pe ke
thermo 			${iexport}	# 1'000'000
thermo 			100000	



#====================CRC Cycle======================

#=============Condensation et chauffe===============

# Minimize during the heating phase
#min_style       sd
#minimize        1.0e-5 1.0e-7 500 1000

fix 			1 all nve
fix 			2 all temp/berendsen 0.0 ${tempchauf} ${Tdamp}
fix 			2 all temp/berendsen 0.0 3000 ${Tdamp}
fix 			2 all temp/berendsen 0.0 3000 0.001
fix             3 all momentum 1 linear 1 1 1 angular rescale

run 			${iter}
run 			10000000
Neighbor list info ...
  update: every = 1 steps, delay = 0 steps, check = yes
  max neighbors/atom: 2000, page size: 100000
  master list distance cutoff = 8.116371
  ghost atom cutoff = 8.116371
  binsize = 4.0581855, bins = 10 10 10
  1 neighbor lists, perpetual/occasional/extra = 1 0 0
  (1) pair airebo, perpetual
      attributes: full, newton on, ghost
      pair build: full/bin/ghost
      stencil: full/ghost/bin/3d
      bin: standard
Per MPI rank memory allocation (min/avg/max) = 3.888 | 3.888 | 3.888 Mbytes
   Step          Temp          TotEng         E_pair         PotEng         KinEng    
         0   1e-07          81746.008      81746.008      81746.008      4.5241051e-10
    100000   80.332743     -167.02496     -167.3884      -167.3884       0.36343377   
    200000   58.753128     -187.72927     -187.99507     -187.99507      0.26580532   
    300000   91.007872     -198.45291     -198.86464     -198.86464      0.41172918   
    400000   120.3486      -198.23485     -198.77932     -198.77932      0.54446973   
    500000   150.50607     -198.1778      -198.8587      -198.8587       0.6809053    
    600000   181.6401      -202.39957     -203.22133     -203.22133      0.82175891   
    700000   209.26286     -202.59093     -203.53766     -203.53766      0.94672715   
    800000   238.36539     -202.99853     -204.07692     -204.07692      1.0783901    
    900000   271.7234      -203.02164     -204.25095     -204.25095      1.2293052    
   1000000   298.31488     -207.63207     -208.98168     -208.98168      1.3496079    
   1100000   328.37766     -207.44837     -208.93399     -208.93399      1.485615     
   1200000   360.27768     -208.08532     -209.71525     -209.71525      1.6299341    
   1300000   385.39551     -207.42534     -209.16891     -209.16891      1.7435698    
   1400000   416.85221     -207.47728     -209.36316     -209.36316      1.8858832    
   1500000   446.41501     -207.08317     -209.1028      -209.1028       2.0196284    
   1600000   484.56416     -206.92134     -209.11356     -209.11356      2.1922192    
   1700000   511.37536     -207.27358     -209.5871      -209.5871       2.3135159    
   1800000   538.02735     -207.0488      -209.48289     -209.48289      2.4340923    
   1900000   565.88582     -206.31994     -208.88007     -208.88007      2.5601269    
   2000000   602.75949     -206.77984     -209.50679     -209.50679      2.7269473    
   2100000   629.97813     -206.77406     -209.62415     -209.62415      2.8500872    
   2200000   660.91519     -206.64875     -209.6388      -209.6388       2.9900498    
   2300000   697.44026     -205.82032     -208.97561     -208.97561      3.155293     
   2400000   719.54232     -205.41763     -208.67291     -208.67291      3.2552851    
   2500000   752.95518     -205.27979     -208.68624     -208.68624      3.4064483    
   2600000   778.62253     -205.76047     -209.28304     -209.28304      3.5225701    
   2700000   808.83025     -205.89742     -209.55665     -209.55665      3.659233     
   2800000   843.26764     -204.99225     -208.80728     -208.80728      3.8150314    
   2900000   871.10248     -205.34081     -209.28176     -209.28176      3.9409592    
   3000000   902.45168     -204.4907      -208.57349     -208.57349      4.0827862    
   3100000   930.46739     -201.64183     -205.85136     -205.85136      4.2095322    
   3200000   970.02801     -203.07394     -207.46245     -207.46245      4.3885086    
   3300000   995.85897     -202.77375     -207.27912     -207.27912      4.5053706    
   3400000   1002.1621     -202.82197     -207.35585     -207.35585      4.5338865    
   3500000   1049.5811     -203.39513     -208.14354     -208.14354      4.748415     
   3600000   1082.5404     -203.13435     -208.03187     -208.03187      4.8975266    
   3700000   1139.3547     -201.68916     -206.84373     -206.84373      5.1545606    
   3800000   1145.2016     -202.74353     -207.92454     -207.92454      5.1810123    
   3900000   1171.0485     -198.49688     -203.79482     -203.79482      5.2979463    
   4000000   1196.7236     -200.57052     -205.98463     -205.98463      5.4141033    
   4100000   1231.5839     -202.64287     -208.21469     -208.21469      5.5718149    
   4200000   1267.1728     -201.46771     -207.20054     -207.20054      5.7328229    
   4300000   1292.369      -204.28565     -210.13246     -210.13246      5.8468134    
   4400000   1321.7632     -204.84427     -210.82407     -210.82407      5.9797955    
   4500000   1331.2418     -202.84043     -208.86311     -208.86311      6.0226778    
   4600000   1390.661      -204.69736     -210.98886     -210.98886      6.2914965    
   4700000   1438.1328     -202.6753      -209.18156     -209.18156      6.5062638    
   4800000   1427.3897     -199.82618     -206.28384     -206.28384      6.4576608    
   4900000   1479.1204     -201.47267     -208.16436     -208.16436      6.6916961    
   5000000   1519.9358     -200.98913     -207.86548     -207.86548      6.8763491    
   5100000   1526.7476     -200.24478     -207.15195     -207.15195      6.9071665    
   5200000   1485.7841     -199.51827     -206.24012     -206.24012      6.7218436    
   5300000   1591.6681     -202.26168     -209.46256     -209.46256      7.2008735    
   5400000   1583.0919     -202.1031      -209.26517     -209.26517      7.1620742    
   5500000   1640.6524     -200.4221      -207.84458     -207.84458      7.4224839    
   5600000   1704.9228     -198.7259      -206.43915     -206.43915      7.7132499    
   5700000   1706.8274     -200.05067     -207.77254     -207.77254      7.7218664    
   5800000   1757.5997     -198.91745     -206.86902     -206.86902      7.9515658    
   5900000   1742.2353     -198.28101     -206.16307     -206.16307      7.8820558    
   6000000   1821.253      -201.55846     -209.798       -209.798        8.2395398    
   6100000   1771.7881     -198.91646     -206.93222     -206.93222      8.0157554    
   6200000   1842.7219     -200.43292     -208.76959     -208.76959      8.3366677    
   6300000   1869.9152     -201.41006     -209.86975     -209.86975      8.4596931    
   6400000   1900.3865     -202.63119     -211.22873     -211.22873      8.5975481    
   6500000   1963.928      -201.01701     -209.90203     -209.90203      8.8850167    
   6600000   1937.5401     -195.02484     -203.79047     -203.79047      8.7656349    
   6700000   2050.8205     -200.15234     -209.43047     -209.43047      9.2781273    
   6800000   2066.4947     -196.25394     -205.60298     -205.60298      9.3490394    
   6900000   2059.4816     -200.10131     -209.41862     -209.41862      9.3173113    
   7000000   2045.6243     -196.01646     -205.27108     -205.27108      9.2546192    
   7100000   2115.1571     -202.20284     -211.77204     -211.77204      9.5691932    
   7200000   2186.0587     -196.36569     -206.25565     -206.25565      9.8899591    
   7300000   2190.0271     -197.07271     -206.98062     -206.98062      9.9079128    
   7400000   2217.8726     -198.88356     -208.91745     -208.91745      10.033889    
   7500000   2100.7658     -198.378       -207.88208     -207.88208      9.5040851    
   7600000   2293.8126     -197.59538     -207.97283     -207.97283      10.377449    
   7700000   2347.6744     -199.77232     -210.39344     -210.39344      10.621126    
   7800000   2313.8319     -196.86843     -207.33645     -207.33645      10.468019    
   7900000   2368.9996     -196.11961     -206.83721     -206.83721      10.717603    
   8000000   2401.3338     -197.7388      -208.60268     -208.60268      10.863887    
   8100000   2468.7851     -198.28122     -209.45027     -209.45027      11.169043    
   8200000   2406.9617     -199.98337     -210.87272     -210.87272      10.889348    
   8300000   2519.646      -198.81239     -210.21153     -210.21153      11.399143    
   8400000   2729.028      -198.64822     -210.99463     -210.99463      12.346409    
   8500000   2519.6091     -198.28928     -209.68826     -209.68826      11.398976    
   8600000   2579.444      -196.47496     -208.14464     -208.14464      11.669676    
   8700000   2558.1114     -197.58088     -209.15405     -209.15405      11.573165    
   8800000   2629.189      -197.02208     -208.9168      -208.9168       11.894727    
   8900000   2620.6803     -196.13272     -207.98895     -207.98895      11.856233    
   9000000   2740.9927     -194.43313     -206.83367     -206.83367      12.400539    
   9100000   2692.1979     -197.37344     -209.55322     -209.55322      12.179786    
   9200000   2685.3447     -191.31422     -203.463       -203.463        12.148782    
   9300000   2749.9891     -190.85713     -203.29837     -203.29837      12.44124     
   9400000   2803.9199     -192.76556     -205.45079     -205.45079      12.685228    
   9500000   2755.9049     -194.15504     -206.62305     -206.62305      12.468003    
   9600000   2837.7739     -192.83868     -205.67706     -205.67706      12.838387    
   9700000   2793.759      -192.34841     -204.98767     -204.98767      12.639259    
   9800000   2990.7687     -192.00534     -205.53589     -205.53589      13.530552    
   9900000   2899.3008     -191.48607     -204.60281     -204.60281      13.116741    
  10000000   3004.8222     -193.13613     -206.73026     -206.73026      13.594131    
Loop time of 2907.98 on 1 procs for 10000000 steps with 36 atoms

Performance: 29.711 ns/day, 0.808 hours/ns, 3438.809 timesteps/s, 123.797 katom-step/s
99.8% CPU use with 1 MPI tasks x 1 OpenMP threads

MPI task timing breakdown:
Section |  min time  |  avg time  |  max time  |%varavg| %total
---------------------------------------------------------------
Pair    | 2686.6     | 2686.6     | 2686.6     |   0.0 | 92.39
Neigh   | 41.86      | 41.86      | 41.86      |   0.0 |  1.44
Comm    | 24.833     | 24.833     | 24.833     |   0.0 |  0.85
Output  | 1.5761     | 1.5761     | 1.5761     |   0.0 |  0.05
Modify  | 127.27     | 127.27     | 127.27     |   0.0 |  4.38
Other   |            | 25.88      |            |       |  0.89

Nlocal:             36 ave          36 max          36 min
Histogram: 1 0 0 0 0 0 0 0 0 0
Nghost:             76 ave          76 max          76 min
Histogram: 1 0 0 0 0 0 0 0 0 0
Neighs:              0 ave           0 max           0 min
Histogram: 1 0 0 0 0 0 0 0 0 0
FullNghs:         1032 ave        1032 max        1032 min
Histogram: 1 0 0 0 0 0 0 0 0 0

Total # of neighbors = 1032
Ave neighs/atom = 28.666667
Neighbor list builds = 206114
Dangerous builds = 18
write_restart 	./endconf/endconf*1.restart
System init for write_restart ...

#==============Constant Temp Phase==================

# Minimize during the constant temperature phase
min_style       sd
minimize        1.0e-5 1.0e-7 500 1000
Per MPI rank memory allocation (min/avg/max) = 6.267 | 6.267 | 6.267 Mbytes
   Step          Temp          TotEng         E_pair         PotEng         KinEng    
  10000000   3004.8222     -193.13613     -206.73026     -206.73026      13.594131    
  10000018   3004.8222     -202.13767     -215.7318      -215.7318       13.594131    
Loop time of 0.0444581 on 1 procs for 18 steps with 36 atoms

80.7% CPU use with 1 MPI tasks x 1 OpenMP threads

Minimization stats:
  Stopping criterion = energy tolerance
  Energy initial, next-to-last, final = 
     -206.730256845712  -215.731437938288  -215.731796924358
  Force two-norm initial, final = 26.326612 5.6270336
  Force max component initial, final = 7.4752837 2.9209745
  Final line search alpha, max atom move = 0.18028781 0.52661608
  Iterations, force evaluations = 18 36

MPI task timing breakdown:
Section |  min time  |  avg time  |  max time  |%varavg| %total
---------------------------------------------------------------
Pair    | 0.032803   | 0.032803   | 0.032803   |   0.0 | 73.79
Neigh   | 0.002152   | 0.002152   | 0.002152   |   0.0 |  4.84
Comm    | 0.0001084  | 0.0001084  | 0.0001084  |   0.0 |  0.24
Output  | 0          | 0          | 0          |   0.0 |  0.00
Modify  | 0          | 0          | 0          |   0.0 |  0.00
Other   |            | 0.009394   |            |       | 21.13

Nlocal:             36 ave          36 max          36 min
Histogram: 1 0 0 0 0 0 0 0 0 0
Nghost:             76 ave          76 max          76 min
Histogram: 1 0 0 0 0 0 0 0 0 0
Neighs:              0 ave           0 max           0 min
Histogram: 1 0 0 0 0 0 0 0 0 0
FullNghs:         1032 ave        1032 max        1032 min
Histogram: 1 0 0 0 0 0 0 0 0 0

Total # of neighbors = 1032
Ave neighs/atom = 28.666667
Neighbor list builds = 12
Dangerous builds = 0

unfix 			2
fix 			4 all temp/berendsen ${tempchauf} ${tempchauf} ${Tdamp}
fix 			4 all temp/berendsen 3000 ${tempchauf} ${Tdamp}
fix 			4 all temp/berendsen 3000 3000 ${Tdamp}
fix 			4 all temp/berendsen 3000 3000 0.001

run 			${iterther}
run 			1000000
Per MPI rank memory allocation (min/avg/max) = 5.142 | 5.142 | 5.142 Mbytes
   Step          Temp          TotEng         E_pair         PotEng         KinEng    
  10000018   3004.8222     -202.13767     -215.7318      -215.7318       13.594131    
  10100000   2871.4238     -190.95984     -203.95047     -203.95047      12.990623    
  10200000   3031.1962     -193.05202     -206.76547     -206.76547      13.71345     
  10300000   3058.8275     -188.68756     -202.52602     -202.52602      13.838457    
  10400000   2958.4303     -192.33674     -205.72099     -205.72099      13.38425     
  10500000   2908.9287     -191.78789     -204.94819     -204.94819      13.160299    
  10600000   3054.5988     -194.73582     -208.55514     -208.55514      13.819326    
  10700000   3028.185      -193.10592     -206.80575     -206.80575      13.699827    
  10800000   2994.0227     -192.6297      -206.17498     -206.17498      13.545273    
  10900000   3019.9242     -196.23926     -209.90172     -209.90172      13.662454    
  11000000   3050.6759     -191.56044     -205.36202     -205.36202      13.801578    
  11000018   3002.5626     -191.73152     -205.31543     -205.31543      13.583909    
Loop time of 515.23 on 1 procs for 1000000 steps with 36 atoms

Performance: 16.769 ns/day, 1.431 hours/ns, 1940.881 timesteps/s, 69.872 katom-step/s
99.8% CPU use with 1 MPI tasks x 1 OpenMP threads

MPI task timing breakdown:
Section |  min time  |  avg time  |  max time  |%varavg| %total
---------------------------------------------------------------
Pair    | 485.22     | 485.22     | 485.22     |   0.0 | 94.17
Neigh   | 7.1786     | 7.1786     | 7.1786     |   0.0 |  1.39
Comm    | 3.2357     | 3.2357     | 3.2357     |   0.0 |  0.63
Output  | 0.21016    | 0.21016    | 0.21016    |   0.0 |  0.04
Modify  | 15.722     | 15.722     | 15.722     |   0.0 |  3.05
Other   |            | 3.666      |            |       |  0.71

Nlocal:             36 ave          36 max          36 min
Histogram: 1 0 0 0 0 0 0 0 0 0
Nghost:             74 ave          74 max          74 min
Histogram: 1 0 0 0 0 0 0 0 0 0
Neighs:              0 ave           0 max           0 min
Histogram: 1 0 0 0 0 0 0 0 0 0
FullNghs:         1004 ave        1004 max        1004 min
Histogram: 1 0 0 0 0 0 0 0 0 0

Total # of neighbors = 1004
Ave neighs/atom = 27.888889
Neighbor list builds = 29611
Dangerous builds = 0
write_restart 	./endconf/endconf*2.restart
System init for write_restart ...

#=================Cooling Phase=====================

# Re-minimize before cooling
#min_style       sd
#minimize        1.0e-5 1.0e-7 500 1000

unfix 			4
fix 			5 all temp/berendsen ${tempchauf} 0.0 ${Tdamp}
fix 			5 all temp/berendsen 3000 0.0 ${Tdamp}
fix 			5 all temp/berendsen 3000 0.0 0.001

run 			${iter}
run 			10000000
Per MPI rank memory allocation (min/avg/max) = 5.142 | 5.142 | 5.142 Mbytes
   Step          Temp          TotEng         E_pair         PotEng         KinEng    
  11000018   3002.5626     -191.73152     -205.31543     -205.31543      13.583909    
  11100000   2967.5715     -193.09652     -206.52212     -206.52212      13.425605    
  11200000   2820.3513     -193.56354     -206.32311     -206.32311      12.759566    
  11300000   2995.5493     -194.5478      -208.09998     -208.09998      13.55218     
  11400000   2887.9529     -193.26286     -206.32826     -206.32826      13.065402    
  11500000   2858.9891     -192.16922     -205.10359     -205.10359      12.934367    
  11600000   2809.7156     -196.15378     -208.86523     -208.86523      12.711449    
  11700000   2805.0791     -196.212       -208.90248     -208.90248      12.690472    
  11800000   2773.0187     -197.41634     -209.96177     -209.96177      12.545428    
  11900000   2757.9626     -192.90256     -205.37987     -205.37987      12.477313    
  12000000   2657.9008     -195.51721     -207.54184     -207.54184      12.024623    
  12100000   2694.067      -195.84137     -208.02961     -208.02961      12.188242    
  12200000   2643.1045     -195.28053     -207.23821     -207.23821      11.957683    
  12300000   2632.8522     -193.98812     -205.89942     -205.89942      11.9113      
  12400000   2596.5349     -198.30157     -210.04857     -210.04857      11.746997    
  12500000   2529.2473     -200.38159     -211.82418     -211.82418      11.442581    
  12600000   2517.6378     -197.60578     -208.99584     -208.99584      11.390058    
  12700000   2409.2947     -197.7564      -208.6563      -208.6563       10.899903    
  12800000   2461.3557     -199.31189     -210.44732     -210.44732      11.135432    
  12900000   2388.4085     -198.99466     -209.80007     -209.80007      10.805411    
  13000000   2333.4966     -199.18881     -209.74579     -209.74579      10.556984    
  13100000   2419.4615     -202.07398     -213.01988     -213.01988      10.945898    
  13200000   2303.6772     -200.4906      -210.91268     -210.91268      10.422078    
  13300000   2242.9666     -198.51178     -208.65919     -208.65919      10.147417    
  13400000   2291.7112     -201.29538     -211.66332     -211.66332      10.367942    
  13500000   2342.4005     -200.10441     -210.70168     -210.70168      10.597266    
  13600000   2163.0195     -202.79877     -212.5845      -212.5845       9.7857275    
  13700000   2194.0826     -202.59723     -212.52349     -212.52349      9.92626      
  13800000   2179.3078     -202.6183      -212.47772     -212.47772      9.8594176    
  13900000   2088.6123     -204.55224     -214.00134     -214.00134      9.4491015    
  14000000   2047.5567     -202.39097     -211.65433     -211.65433      9.2633616    
  14100000   2045.2688     -203.34452     -212.59753     -212.59753      9.2530112    
  14200000   2059.4495     -205.80182     -215.11898     -215.11898      9.3171661    
  14300000   1913.2465     -204.42028     -213.076       -213.076        8.6557281    
  14400000   1988.4694     -205.14027     -214.13631     -214.13631      8.9960445    
  14500000   1904.6322     -205.06654     -213.68329     -213.68329      8.6167563    
  14600000   2040.8822     -205.96814     -215.20131     -215.20131      9.2331655    
  14700000   1853.7016     -204.56649     -212.95283     -212.95283      8.3863407    
  14800000   1835.2646     -201.73884     -210.04177     -210.04177      8.3029301    
  14900000   1775.3894     -205.0121      -213.04414     -213.04414      8.0320483    
  15000000   1873.6482     -205.19842     -21