ITEM: TIMESTEP
0
ITEM: NUMBER OF ATOMS
5
ITEM: BOX BOUNDS pp pp pp
0.0000000000000000e+00 1.0000000000000000e+01
0.0000000000000000e+00 1.0000000000000000e+01
0.0000000000000000e+00 1.0000000000000000e+01
ITEM: ATOMS id type xs ys zs
1 1 0.630374 0.496942 0.302744
2 1 0.426777 0.633013 0.448404
3 1 0.519586 0.477346 0.557433
4 1 0.584257 0.600695 0.473768
5 1 0.415029 0.391636 0.422471
ITEM: TIMESTEP
1000
ITEM: NUMBER OF ATOMS
5
ITEM: BOX BOUNDS pp pp pp
0.0000000000000000e+00 1.0000000000000000e+01
0.0000000000000000e+00 1.0000000000000000e+01
0.0000000000000000e+00 1.0000000000000000e+01
ITEM: ATOMS id type xs ys zs
1 1 0.630642 0.491274 0.295278
2 1 0.402619 0.640995 0.442888
3 1 0.518771 0.462331 0.582118
4 1 0.615867 0.620596 0.473222
5 1 0.408124 0.384436 0.411314
ITEM: TIMESTEP
2000
ITEM: NUMBER OF ATOMS
5
ITEM: BOX BOUNDS pp pp pp
0.0000000000000000e+00 1.0000000000000000e+01
0.0000000000000000e+00 1.0000000000000000e+01
0.0000000000000000e+00 1.0000000000000000e+01
ITEM: ATOMS id type xs ys zs
1 1 0.629252 0.488059 0.292428
2 1 0.396581 0.642911 0.441008
3 1 0.519622 0.458722 0.590188
4 1 0.624344 0.627787 0.475006
5 1 0.406223 0.382153 0.406191
ITEM: TIMESTEP
3000
ITEM: NUMBER OF ATOMS
5
ITEM: BOX BOUNDS pp pp pp
0.0000000000000000e+00 1.0000000000000000e+01
0.0000000000000000e+00 1.0000000000000000e+01
0.0000000000000000e+00 1.0000000000000000e+01
ITEM: ATOMS id type xs ys zs
1 1 0.627188 0.485838 0.291481
2 1 0.393962 0.642509 0.440128
3 1 0.51991 0.457363 0.594198
4 1 0.629285 0.632277 0.47631
5 1 0.405676 0.381643 0.402703
ITEM: TIMESTEP
4000
ITEM: NUMBER OF ATOMS
5
ITEM: BOX BOUNDS pp pp pp
0.0000000000000000e+00 1.0000000000000000e+01
0.0000000000000000e+00 1.0000000000000000e+01
0.0000000000000000e+00 1.0000000000000000e+01
ITEM: ATOMS id type xs ys zs
1 1 0.624614 0.484058 0.291543
2 1 0.392446 0.641585 0.439348
3 1 0.520177 0.456561 0.59683
4 1 0.633168 0.635876 0.477399
5 1 0.405616 0.381551 0.399701
ITEM: TIMESTEP
5000
ITEM: NUMBER OF ATOMS
5
ITEM: BOX BOUNDS pp pp pp
0.0000000000000000e+00 1.0000000000000000e+01
0.0000000000000000e+00 1.0000000000000000e+01
0.0000000000000000e+00 1.0000000000000000e+01
ITEM: ATOMS id type xs ys zs
1 1 0.622281 0.48294 0.292035
2 1 0.391522 0.640292 0.43858
3 1 0.520379 0.456065 0.598601
4 1 0.636989 0.639358 0.478419
5 1 0.404851 0.380976 0.397186
ITEM: TIMESTEP
6000
ITEM: NUMBER OF ATOMS
5
ITEM: BOX BOUNDS pp pp pp
0.0000000000000000e+00 1.0000000000000000e+01
0.0000000000000000e+00 1.0000000000000000e+01
0.0000000000000000e+00 1.0000000000000000e+01
ITEM: ATOMS id type xs ys zs
1 1 0.62035 0.48256 0.292937
2 1 0.390925 0.638627 0.437833
3 1 0.520374 0.455736 0.599543
4 1 0.641218 0.642974 0.479309
5 1 0.403155 0.379734 0.395199
ITEM: TIMESTEP
7000
ITEM: NUMBER OF ATOMS
5
ITEM: BOX BOUNDS pp pp pp
0.0000000000000000e+00 1.0000000000000000e+01
0.0000000000000000e+00 1.0000000000000000e+01
0.0000000000000000e+00 1.0000000000000000e+01
ITEM: ATOMS id type xs ys zs
1 1 0.618503 0.482592 0.294299
2 1 0.390516 0.636707 0.437184
3 1 0.520152 0.455524 0.59985
4 1 0.645822 0.646727 0.480039
5 1 0.40103 0.378081 0.393448
ITEM: TIMESTEP
8000
ITEM: NUMBER OF ATOMS
5
ITEM: BOX BOUNDS pp pp pp
0.0000000000000000e+00 1.0000000000000000e+01
0.0000000000000000e+00 1.0000000000000000e+01
0.0000000000000000e+00 1.0000000000000000e+01
ITEM: ATOMS id type xs ys zs
1 1 0.616396 0.482748 0.296133
2 1 0.391604 0.634407 0.436829
3 1 0.520327 0.456235 0.599335
4 1 0.649389 0.650357 0.4811
5 1 0.398305 0.375884 0.391425
ITEM: TIMESTEP
9000
ITEM: NUMBER OF ATOMS
5
ITEM: BOX BOUNDS pp pp pp
0.0000000000000000e+00 1.0000000000000000e+01
0.0000000000000000e+00 1.0000000000000000e+01
0.0000000000000000e+00 1.0000000000000000e+01
ITEM: ATOMS id type xs ys zs
1 1 0.614088 0.482775 0.298106
2 1 0.394007 0.631853 0.436733
3 1 0.521146 0.458006 0.598186
4 1 0.651628 0.653606 0.482728
5 1 0.395152 0.373391 0.389069
ITEM: TIMESTEP
10000
ITEM: NUMBER OF ATOMS
5
ITEM: BOX BOUNDS pp pp pp
0.0000000000000000e+00 1.0000000000000000e+01
0.0000000000000000e+00 1.0000000000000000e+01
0.0000000000000000e+00 1.0000000000000000e+01
ITEM: ATOMS id type xs ys zs
1 1 0.611455 0.482637 0.300131
2 1 0.396713 0.62933 0.436297
3 1 0.522015 0.459501 0.596349
4 1 0.653754 0.657189 0.484823
5 1 0.392085 0.370974 0.38722
ITEM: TIMESTEP
11000
ITEM: NUMBER OF ATOMS
5
ITEM: BOX BOUNDS pp pp pp
0.0000000000000000e+00 1.0000000000000000e+01
0.0000000000000000e+00 1.0000000000000000e+01
0.0000000000000000e+00 1.0000000000000000e+01
ITEM: ATOMS id type xs ys zs
1 1 0.608528 0.482838 0.302772
2 1 0.39933 0.627782 0.434225
3 1 0.523643 0.459446 0.593755
4 1 0.655364 0.660723 0.487306
5 1 0.389157 0.368842 0.386762
ITEM: TIMESTEP
12000
ITEM: NUMBER OF ATOMS
5
ITEM: BOX BOUNDS pp pp pp
0.0000000000000000e+00 1.0000000000000000e+01
0.0000000000000000e+00 1.0000000000000000e+01
0.0000000000000000e+00 1.0000000000000000e+01
ITEM: ATOMS id type xs ys zs
1 1 0.60589 0.483691 0.306438
2 1 0.401655 0.626775 0.43123
3 1 0.525943 0.458509 0.590606
4 1 0.656326 0.663503 0.489393
5 1 0.386208 0.367153 0.387153
ITEM: TIMESTEP
13000
ITEM: NUMBER OF ATOMS
5
ITEM: BOX BOUNDS pp pp pp
0.0000000000000000e+00 1.0000000000000000e+01
0.0000000000000000e+00 1.0000000000000000e+01
0.0000000000000000e+00 1.0000000000000000e+01
ITEM: ATOMS id type xs ys zs
1 1 0.603394 0.484543 0.310536
2 1 0.403901 0.625814 0.428096
3 1 0.528526 0.457333 0.587194
4 1 0.65701 0.66618 0.491321
5 1 0.383189 0.36576 0.387674
ITEM: TIMESTEP
14000
ITEM: NUMBER OF ATOMS
5
ITEM: BOX BOUNDS pp pp pp
0.0000000000000000e+00 1.0000000000000000e+01
0.0000000000000000e+00 1.0000000000000000e+01
0.0000000000000000e+00 1.0000000000000000e+01
ITEM: ATOMS id type xs ys zs
1 1 0.601311 0.485077 0.314492
2 1 0.405939 0.625052 0.424922
3 1 0.531376 0.455978 0.583595
4 1 0.657427 0.668967 0.493418
5 1 0.379969 0.364557 0.388394
ITEM: TIMESTEP
15000
ITEM: NUMBER OF ATOMS
5
ITEM: BOX BOUNDS pp pp pp
0.0000000000000000e+00 1.0000000000000000e+01
0.0000000000000000e+00 1.0000000000000000e+01
0.0000000000000000e+00 1.0000000000000000e+01
ITEM: ATOMS id type xs ys zs
1 1 0.601897 0.482927 0.319177
2 1 0.405841 0.625415 0.424129
3 1 0.534816 0.454448 0.578943
4 1 0.656536 0.671803 0.494204
5 1 0.376932 0.365039 0.388368
ITEM: TIMESTEP
16000
ITEM: NUMBER OF ATOMS
5
ITEM: BOX BOUNDS pp pp pp
0.0000000000000000e+00 1.0000000000000000e+01
0.0000000000000000e+00 1.0000000000000000e+01
0.0000000000000000e+00 1.0000000000000000e+01
ITEM: ATOMS id type xs ys zs
1 1 0.603667 0.480117 0.322645
2 1 0.406065 0.625139 0.424338
3 1 0.538047 0.452397 0.576348
4 1 0.654558 0.675067 0.493903
5 1 0.373685 0.36691 0.387587
ITEM: TIMESTEP
17000
ITEM: NUMBER OF ATOMS
5
ITEM: BOX BOUNDS pp pp pp
0.0000000000000000e+00 1.0000000000000000e+01
0.0000000000000000e+00 1.0000000000000000e+01
0.0000000000000000e+00 1.0000000000000000e+01
ITEM: ATOMS id type xs ys zs
1 1 0.603517 0.48033 0.322426
2 1 0.405134 0.626059 0.424128
3 1 0.537844 0.452545 0.576457
5 1 0.37474 0.366724 0.387902
4 1 0.654787 0.673974 0.493906
ITEM: TIMESTEP
18000
ITEM: NUMBER OF ATOMS
5
ITEM: BOX BOUNDS pp pp pp
0.0000000000000000e+00 1.0000000000000000e+01
0.0000000000000000e+00 1.0000000000000000e+01
0.0000000000000000e+00 1.0000000000000000e+01
ITEM: ATOMS id type xs ys zs
1 1 0.601865 0.482293 0.321099
2 1 0.405071 0.626116 0.424132
3 1 0.535649 0.454288 0.577205
5 1 0.377005 0.365182 0.388308
4 1 0.656432 0.671753 0.494077
ITEM: TIMESTEP
19000
ITEM: NUMBER OF ATOMS
5
ITEM: BOX BOUNDS pp pp pp
0.0000000000000000e+00 1.0000000000000000e+01
0.0000000000000000e+00 1.0000000000000000e+01
0.0000000000000000e+00 1.0000000000000000e+01
ITEM: ATOMS id type xs ys zs
1 1 0.602974 0.480537 0.323259
2 1 0.406607 0.624649 0.424326
3 1 0.537784 0.452906 0.575568
5 1 0.373157 0.365885 0.387398
4 1 0.6555 0.675654 0.494271
ITEM: TIMESTEP
20000
ITEM: NUMBER OF ATOMS
5
ITEM: BOX BOUNDS pp pp pp
0.0000000000000000e+00 1.0000000000000000e+01
0.0000000000000000e+00 1.0000000000000000e+01
0.0000000000000000e+00 1.0000000000000000e+01
ITEM: ATOMS id type xs ys zs
1 1 0.602717 0.481592 0.32088
2 1 0.405783 0.625441 0.424206
3 1 0.53636 0.453466 0.577709
5 1 0.375417 0.365787 0.387958
4 1 0.655745 0.673346 0.494068
ITEM: TIMESTEP
21000
ITEM: NUMBER OF ATOMS
5
ITEM: BOX BOUNDS pp pp pp
0.0000000000000000e+00 1.0000000000000000e+01
0.0000000000000000e+00 1.0000000000000000e+01
0.0000000000000000e+00 1.0000000000000000e+01
ITEM: ATOMS id type xs ys zs
1 1 0.602376 0.481686 0.321507
2 1 0.40518 0.62597 0.424265
3 1 0.536238 0.453798 0.577068
5 1 0.375429 0.364738 0.387738
4 1 0.656798 0.673439 0.494243
ITEM: TIMESTEP
22000
ITEM: NUMBER OF ATOMS
5
ITEM: BOX BOUNDS pp pp pp
0.0000000000000000e+00 1.0000000000000000e+01
0.0000000000000000e+00 1.0000000000000000e+01
0.0000000000000000e+00 1.0000000000000000e+01
ITEM: ATOMS id type xs ys zs
1 1 0.603143 0.48019 0.323819
2 1 0.405412 0.625876 0.423927
3 1 0.538362 0.452579 0.574989
5 1 0.374114 0.366412 0.387884
4 1 0.654991 0.674574 0.494202
ITEM: TIMESTEP
23000
ITEM: NUMBER OF ATOMS
5
ITEM: BOX BOUNDS pp pp pp
0.0000000000000000e+00 1.0000000000000000e+01
0.0000000000000000e+00 1.0000000000000000e+01
0.0000000000000000e+00 1.0000000000000000e+01
ITEM: ATOMS id type xs ys zs
1 1 0.602258 0.481929 0.321116
2 1 0.405179 0.62593 0.424386
3 1 0.535842 0.454029 0.577445
5 1 0.377196 0.366177 0.388256
4 1 0.655547 0.671567 0.493618
ITEM: TIMESTEP
24000
ITEM: NUMBER OF ATOMS
5
ITEM: BOX BOUNDS pp pp pp
0.0000000000000000e+00 1.0000000000000000e+01
0.0000000000000000e+00 1.0000000000000000e+01
0.0000000000000000e+00 1.0000000000000000e+01
ITEM: ATOMS id type xs ys zs
1 1 0.603432 0.480639 0.321753
2 1 0.406058 0.62523 0.424094
3 1 0.537542 0.45265 0.57695
5 1 0.37418 0.366611 0.387899
4 1 0.65481 0.674502 0.494124
ITEM: TIMESTEP
25000
ITEM: NUMBER OF ATOMS
5
ITEM: BOX BOUNDS pp pp pp
0.0000000000000000e+00 1.0000000000000000e+01
0.0000000000000000e+00 1.0000000000000000e+01
0.0000000000000000e+00 1.0000000000000000e+01
ITEM: ATOMS id type xs ys zs
1 1 0.603036 0.481008 0.321731
2 1 0.405389 0.626394 0.422485
3 1 0.538525 0.451604 0.577386
5 1 0.374539 0.366717 0.388617
4 1 0.654533 0.673909 0.494601
ITEM: TIMESTEP
26000
ITEM: NUMBER OF ATOMS
5
ITEM: BOX BOUNDS pp pp pp
0.0000000000000000e+00 1.0000000000000000e+01
0.0000000000000000e+00 1.0000000000000000e+01
0.0000000000000000e+00 1.0000000000000000e+01
ITEM: ATOMS id type xs ys zs
1 1 0.602233 0.481497 0.322432
2 1 0.404806 0.626083 0.424927
3 1 0.536307 0.453445 0.577909
5 1 0.376297 0.365659 0.386768
4 1 0.656378 0.672947 0.492785
ITEM: TIMESTEP
27000
ITEM: NUMBER OF ATOMS
5
ITEM: BOX BOUNDS pp pp pp
0.0000000000000000e+00 1.0000000000000000e+01
0.0000000000000000e+00 1.0000000000000000e+01
0.0000000000000000e+00 1.0000000000000000e+01
ITEM: ATOMS id type xs ys zs
1 1 0.602202 0.481263 0.323194
2 1 0.406217 0.625308 0.423445
3 1 0.53769 0.453133 0.575161
5 1 0.374372 0.365723 0.388296
4 1 0.655541 0.674204 0.494725
ITEM: TIMESTEP
28000
ITEM: NUMBER OF ATOMS
5
ITEM: BOX BOUNDS pp pp pp
0.0000000000000000e+00 1.0000000000000000e+01
0.0000000000000000e+00 1.0000000000000000e+01
0.0000000000000000e+00 1.0000000000000000e+01
ITEM: ATOMS id type xs ys zs
1 1 0.602986 0.481021 0.321824
2 1 0.405546 0.62536 0.425068
3 1 0.536327 0.45398 0.576305
5 1 0.3756 0.366056 0.387826
4 1 0.655562 0.673214 0.493798
ITEM: TIMESTEP
29000
ITEM: NUMBER OF ATOMS
5
ITEM: BOX BOUNDS pp pp pp
0.0000000000000000e+00 1.0000000000000000e+01
0.0000000000000000e+00 1.0000000000000000e+01
0.0000000000000000e+00 1.0000000000000000e+01
ITEM: ATOMS id type xs ys zs
1 1 0.60395 0.480186 0.321697
2 1 0.40536 0.625508 0.42513
3 1 0.537058 0.453124 0.576854
5 1 0.374485 0.366432 0.387447
4 1 0.655169 0.674381 0.493692
ITEM: TIMESTEP
30000
ITEM: NUMBER OF ATOMS
5
ITEM: BOX BOUNDS pp pp pp
0.0000000000000000e+00 1.0000000000000000e+01
0.0000000000000000e+00 1.0000000000000000e+01
0.0000000000000000e+00 1.0000000000000000e+01
ITEM: ATOMS id type xs ys zs
1 1 0.602375 0.481909 0.320864
2 1 0.40683 0.624732 0.423494
3 1 0.536773 0.453234 0.57729
5 1 0.37381 0.36495 0.388135
4 1 0.656233 0.674806 0.495038
ITEM: TIMESTEP
31000
ITEM: NUMBER OF ATOMS
5
ITEM: BOX BOUNDS pp pp pp
0.0000000000000000e+00 1.0000000000000000e+01
0.0000000000000000e+00 1.0000000000000000e+01
0.0000000000000000e+00 1.0000000000000000e+01
ITEM: ATOMS id type xs ys zs
1 1 0.603185 0.48081 0.32191
2 1 0.405937 0.62523 0.424412
3 1 0.537549 0.452041 0.578695
5 1 0.3758 0.36841 0.387335
4 1 0.65355 0.67314 0.492469
ITEM: TIMESTEP
32000
ITEM: NUMBER OF ATOMS
5
ITEM: BOX BOUNDS pp pp pp
0.0000000000000000e+00 1.0000000000000000e+01
0.0000000000000000e+00 1.0000000000000000e+01
0.0000000000000000e+00 1.0000000000000000e+01
ITEM: ATOMS id type xs ys zs
1 1 0.601197 0.482571 0.322057
2 1 0.405699 0.625792 0.423412
3 1 0.536298 0.453903 0.576605
5 1 0.375657 0.364253 0.388094
4 1 0.65717 0.673112 0.494653
ITEM: TIMESTEP
33000
ITEM: NUMBER OF ATOMS
5
ITEM: BOX BOUNDS pp pp pp
0.0000000000000000e+00 1.0000000000000000e+01
0.0000000000000000e+00 1.0000000000000000e+01
0.0000000000000000e+00 1.0000000000000000e+01
ITEM: ATOMS id type xs ys zs
1 1 0.603915 0.479974 0.322404
2 1 0.404754 0.625935 0.425493
3 1 0.537272 0.45286 0.577054
5 1 0.375124 0.366923 0.386974
4 1 0.654956 0.673939 0.492896
ITEM: TIMESTEP
34000
ITEM: NUMBER OF ATOMS
5
ITEM: BOX BOUNDS pp pp pp
0.0000000000000000e+00 1.0000000000000000e+01
0.0000000000000000e+00 1.0000000000000000e+01
0.0000000000000000e+00 1.0000000000000000e+01
ITEM: ATOMS id type xs ys zs
1 1 0.602815 0.481665 0.32041
2 1 0.405878 0.625645 0.423363
3 1 0.53683 0.453342 0.576827
5 1 0.375748 0.366438 0.389306
4 1 0.65475 0.672542 0.494915
ITEM: TIMESTEP
35000
ITEM: NUMBER OF ATOMS
5
ITEM: BOX BOUNDS pp pp pp
0.0000000000000000e+00 1.0000000000000000e+01
0.0000000000000000e+00 1.0000000000000000e+01
0.0000000000000000e+00 1.0000000000000000e+01
ITEM: ATOMS id type xs ys zs
1 1 0.603359 0.480784 0.321528
2 1 0.407036 0.623853 0.425499
3 1 0.536274 0.454063 0.576204
5 1 0.374068 0.366198 0.387571
4 1 0.655286 0.674733 0.494018
ITEM: TIMESTEP
36000
ITEM: NUMBER OF ATOMS
5
ITEM: BOX BOUNDS pp pp pp
0.0000000000000000e+00 1.0000000000000000e+01
0.0000000000000000e+00 1.0000000000000000e+01
0.0000000000000000e+00 1.0000000000000000e+01
ITEM: ATOMS id type xs ys zs
1 1 0.601933 0.482108 0.321454
2 1 0.405758 0.62602 0.422593
3 1 0.537578 0.452193 0.578179
5 1 0.375129 0.365785 0.388211
4 1 0.655623 0.673525 0.494384
ITEM: TIMESTEP
37000
ITEM: NUMBER OF ATOMS
5
ITEM: BOX BOUNDS pp pp pp
0.0000000000000000e+00 1.0000000000000000e+01
0.0000000000000000e+00 1.0000000000000000e+01
0.0000000000000000e+00 1.0000000000000000e+01
ITEM: ATOMS id type xs ys zs
1 1 0.602725 0.481054 0.322419
2 1 0.405074 0.625912 0.424715
3 1 0.537168 0.452483 0.578425
5 1 0.375016 0.365931 0.386444
4 1 0.656039 0.674252 0.492818
ITEM: TIMESTEP
38000
ITEM: NUMBER OF ATOMS
5
ITEM: BOX BOUNDS pp pp pp
0.0000000000000000e+00 1.0000000000000000e+01
0.0000000000000000e+00 1.0000000000000000e+01
0.0000000000000000e+00 1.0000000000000000e+01
ITEM: ATOMS id type xs ys zs
1 1 0.602513 0.481287 0.322304
2 1 0.405205 0.626277 0.423312
3 1 0.537382 0.453517 0.574861
5 1 0.374492 0.364613 0.388812
4 1 0.65643 0.673938 0.495532
ITEM: TIMESTEP
39000
ITEM: NUMBER OF ATOMS
5
ITEM: BOX BOUNDS pp pp pp
0.0000000000000000e+00 1.0000000000000000e+01
0.0000000000000000e+00 1.0000000000000000e+01
0.0000000000000000e+00 1.0000000000000000e+01
ITEM: ATOMS id type xs ys zs
1 1 0.604135 0.480209 0.321144
2 1 0.404388 0.625766 0.42695
3 1 0.535513 0.454402 0.577231
5 1 0.376945 0.367073 0.387115
4 1 0.65504 0.672182 0.49238
ITEM: TIMESTEP
40000
ITEM: NUMBER OF ATOMS
5
ITEM: BOX BOUNDS pp pp pp
0.0000000000000000e+00 1.0000000000000000e+01
0.0000000000000000e+00 1.0000000000000000e+01
0.0000000000000000e+00 1.0000000000000000e+01
ITEM: ATOMS id type xs ys zs
1 1 0.60329 0.481108 0.32077
2 1 0.406729 0.62489 0.423306
3 1 0.537643 0.452585 0.576873
5 1 0.373921 0.366641 0.388845
4 1 0.65444 0.674408 0.495027
ITEM: TIMESTEP
41000
ITEM: NUMBER OF ATOMS
5
ITEM: BOX BOUNDS pp pp pp
0.0000000000000000e+00 1.0000000000000000e+01
0.0000000000000000e+00 1.0000000000000000e+01
0.0000000000000000e+00 1.0000000000000000e+01
ITEM: ATOMS id type xs ys zs
1 1 0.602238 0.482128 0.320591
2 1 0.406348 0.624916 0.424236
3 1 0.535905 0.453824 0.577873
5 1 0.375035 0.364981 0.38779
4 1 0.656496 0.673783 0.49433
ITEM: TIMESTEP
42000
ITEM: NUMBER OF ATOMS
5
ITEM: BOX BOUNDS pp pp pp
0.0000000000000000e+00 1.0000000000000000e+01
0.0000000000000000e+00 1.0000000000000000e+01
0.0000000000000000e+00 1.0000000000000000e+01
ITEM: ATOMS id type xs ys zs
1 1 0.602715 0.480437 0.324232
2 1 0.405359 0.626252 0.422977
3 1 0.539655 0.450526 0.577523
5 1 0.37435 0.367833 0.387128
4 1 0.653942 0.674584 0.49296
ITEM: TIMESTEP
43000
ITEM: NUMBER OF ATOMS
5
ITEM: BOX BOUNDS pp pp pp
0.0000000000000000e+00 1.0000000000000000e+01
0.0000000000000000e+00 1.0000000000000000e+01
0.0000000000000000e+00 1.0000000000000000e+01
ITEM: ATOMS id type xs ys zs
1 1 0.601572 0.482421 0.321501
2 1 0.405568 0.625797 0.423744
3 1 0.535963 0.454144 0.57679
5 1 0.375683 0.364184 0.388106
4 1 0.657235 0.673086 0.49468
ITEM: TIMESTEP
44000
ITEM: NUMBER OF ATOMS
5
ITEM: BOX BOUNDS pp pp pp
0.0000000000000000e+00 1.0000000000000000e+01
0.0000000000000000e+00 1.0000000000000000e+01
0.0000000000000000e+00 1.0000000000000000e+01
ITEM: ATOMS id type xs ys zs
1 1 0.604875 0.479124 0.322333
2 1 0.404399 0.626036 0.426137
3 1 0.537134 0.453454 0.575699
5 1 0.374528 0.366603 0.387227
4 1 0.655086 0.674414 0.493424
ITEM: TIMESTEP
45000
ITEM: NUMBER OF ATOMS
5
ITEM: BOX BOUNDS pp pp pp
0.0000000000000000e+00 1.0000000000000000e+01
0.0000000000000000e+00 1.0000000000000000e+01
0.0000000000000000e+00 1.0000000000000000e+01
ITEM: ATOMS id type xs ys zs
1 1 0.602801 0.481956 0.319601
2 1 0.406056 0.625565 0.423124
3 1 0.536395 0.453829 0.576565
5 1 0.375538 0.365709 0.38983
4 1 0.655232 0.672572 0.495701
ITEM: TIMESTEP
46000
ITEM: NUMBER OF ATOMS
5
ITEM: BOX BOUNDS pp pp pp
0.0000000000000000e+00 1.0000000000000000e+01
0.0000000000000000e+00 1.0000000000000000e+01
0.0000000000000000e+00 1.0000000000000000e+01
ITEM: ATOMS id type xs ys zs
1 1 0.603403 0.480486 0.322273
2 1 0.406621 0.623983 0.426219
3 1 0.536153 0.453681 0.577632
5 1 0.374582 0.366767 0.386227
4 1 0.655263 0.674714 0.492471
ITEM: TIMESTEP
47000
ITEM: NUMBER OF ATOMS
5
ITEM: BOX BOUNDS pp pp pp
0.0000000000000000e+00 1.0000000000000000e+01
0.0000000000000000e+00 1.0000000000000000e+01
0.0000000000000000e+00 1.0000000000000000e+01
ITEM: ATOMS id type xs ys zs
1 1 0.602096 0.482068 0.32114
2 1 0.406733 0.625812 0.420622
3 1 0.538945 0.451142 0.577614
5 1 0.374171 0.366757 0.389747
4 1 0.654076 0.673852 0.495697
ITEM: TIMESTEP
48000
ITEM: NUMBER OF ATOMS
5
ITEM: BOX BOUNDS pp pp pp
0.0000000000000000e+00 1.0000000000000000e+01
0.0000000000000000e+00 1.0000000000000000e+01
0.0000000000000000e+00 1.0000000000000000e+01
ITEM: ATOMS id type xs ys zs
1 1 0.602505 0.480964 0.32326
2 1 0.404441 0.626233 0.425458
3 1 0.536487 0.453331 0.577763
5 1 0.376138 0.36578 0.386117
4 1 0.656452 0.673323 0.492222
ITEM: TIMESTEP
49000
ITEM: NUMBER OF ATOMS
5
ITEM: BOX BOUNDS pp pp pp
0.0000000000000000e+00 1.0000000000000000e+01
0.0000000000000000e+00 1.0000000000000000e+01
0.0000000000000000e+00 1.0000000000000000e+01
ITEM: ATOMS id type xs ys zs
1 1 0.603542 0.480077 0.323091
2 1 0.405122 0.626312 0.423428
3 1 0.538434 0.452422 0.575257
5 1 0.374138 0.366456 0.388407
4 1 0.654785 0.674365 0.494638
ITEM: TIMESTEP
50000
ITEM: NUMBER OF ATOMS
5
ITEM: BOX BOUNDS pp pp pp
0.0000000000000000e+00 1.0000000000000000e+01
0.0000000000000000e+00 1.0000000000000000e+01
0.0000000000000000e+00 1.0000000000000000e+01
ITEM: ATOMS id type xs ys zs
1 1 0.602299 0.482799 0.318486
2 1 0.405517 0.625245 0.425476
3 1 0.53338 0.455984 0.578282
5 1 0.37744 0.364232 0.388306
4 1 0.657386 0.671372 0.494272
ITEM: TIMESTEP
51000
ITEM: NUMBER OF ATOMS
5
ITEM: BOX BOUNDS pp pp pp
0.0000000000000000e+00 1.0000000000000000e+01
0.0000000000000000e+00 1.0000000000000000e+01
0.0000000000000000e+00 1.0000000000000000e+01
ITEM: ATOMS id type xs ys zs
1 1 0.604387 0.479773 0.321739
2 1 0.406275 0.624818 0.424712
3 1 0.537391 0.453069 0.576134
5 1 0.37347 0.366821 0.38793
4 1 0.654499 0.675149 0.494306
ITEM: TIMESTEP
52000
ITEM: NUMBER OF ATOMS
5
ITEM: BOX BOUNDS pp pp pp
0.0000000000000000e+00 1.0000000000000000e+01
0.0000000000000000e+00 1.0000000000000000e+01
0.0000000000000000e+00 1.0000000000000000e+01
ITEM: ATOMS id type xs ys zs
1 1 0.601199 0.482754 0.321521
2 1 0.404794 0.62808 0.419172
3 1 0.539138 0.450482 0.579017
5 1 0.375863 0.366016 0.389721
4 1 0.655028 0.672299 0.49539
ITEM: TIMESTEP
53000
ITEM: NUMBER OF ATOMS
5
ITEM: BOX BOUNDS pp pp pp
0.0000000000000000e+00 1.0000000000000000e+01
0.0000000000000000e+00 1.0000000000000000e+01
0.0000000000000000e+00 1.0000000000000000e+01
ITEM: ATOMS id type xs ys zs
1 1 0.602646 0.480724 0.323584
2 1 0.406117 0.624783 0.425231
3 1 0.536711 0.453472 0.576762
5 1 0.373701 0.365001 0.386034
4 1 0.656846 0.675651 0.49321
ITEM: TIMESTEP
54000
ITEM: NUMBER OF ATOMS
5
ITEM: BOX BOUNDS pp pp pp
0.0000000000000000e+00 1.0000000000000000e+01
0.0000000000000000e+00 1.0000000000000000e+01
0.0000000000000000e+00 1.0000000000000000e+01
ITEM: ATOMS id type xs ys zs
1 1 0.604837 0.4798 0.320472
2 1 0.405194 0.625741 0.424893
3 1 0.5364 0.454131 0.575674
5 1 0.37492 0.366516 0.388945
4 1 0.654671 0.673442 0.494837
ITEM: TIMESTEP
55000
ITEM: NUMBER OF ATOMS
5
ITEM: BOX BOUNDS pp pp pp
0.0000000000000000e+00 1.0000000000000000e+01
0.0000000000000000e+00 1.0000000000000000e+01
0.0000000000000000e+00 1.0000000000000000e+01
ITEM: ATOMS id type xs ys zs
1 1 0.602703 0.481856 0.320151
2 1 0.406186 0.624949 0.424567
3 1 0.535437 0.453621 0.579698
5 1 0.375803 0.365953 0.387192
4 1 0.655893 0.673251 0.493213
ITEM: TIMESTEP
56000
ITEM: NUMBER OF ATOMS
5
ITEM: BOX BOUNDS pp pp pp
0.0000000000000000e+00 1.0000000000000000e+01
0.0000000000000000e+00 1.0000000000000000e+01
0.0000000000000000e+00 1.0000000000000000e+01
ITEM: ATOMS id type xs ys zs
1 1 0.602453 0.481139 0.322888
2 1 0.407421 0.624262 0.423298
3 1 0.538022 0.452018 0.577515
5 1 0.373721 0.367131 0.387437
4 1 0.654405 0.675081 0.493682
ITEM: TIMESTEP
57000
ITEM: NUMBER OF ATOMS
5
ITEM: BOX BOUNDS pp pp pp
0.0000000000000000e+00 1.0000000000000000e+01
0.0000000000000000e+00 1.0000000000000000e+01
0.0000000000000000e+00 1.0000000000000000e+01
ITEM: ATOMS id type xs ys zs
1 1 0.600953 0.482219 0.323724
2 1 0.40571 0.625637 0.423833
3 1 0.5365 0.453615 0.576902
5 1 0.375964 0.364969 0.387012
4 1 0.656895 0.673191 0.49335
ITEM: TIMESTEP
58000
ITEM: NUMBER OF ATOMS
5
ITEM: BOX BOUNDS pp pp pp
0.0000000000000000e+00 1.0000000000000000e+01
0.0000000000000000e+00 1.0000000000000000e+01
0.0000000000000000e+00 1.0000000000000000e+01
ITEM: ATOMS id type xs ys zs
1 1 0.603276 0.480426 0.32278
2 1 0.404205 0.627084 0.423613
3 1 0.538023 0.452286 0.576733
5 1 0.375544 0.366631 0.387962
4 1 0.654974 0.673205 0.493732
ITEM: TIMESTEP
59000
ITEM: NUMBER OF ATOMS
5
ITEM: BOX BOUNDS pp pp pp
0.0000000000000000e+00 1.0000000000000000e+01
0.0000000000000000e+00 1.0000000000000000e+01
0.0000000000000000e+00 1.0000000000000000e+01
ITEM: ATOMS id type xs ys zs
1 1 0.604532 0.480091 0.320435
2 1 0.404658 0.626436 0.424293
3 1 0.537009 0.453564 0.57571
5 1 0.374804 0.366053 0.389157
4 1 0.655019 0.673487 0.495225
ITEM: TIMESTEP
60000
ITEM: NUMBER OF ATOMS
5
ITEM: BOX BOUNDS pp pp pp
0.0000000000000000e+00 1.0000000000000000e+01
0.0000000000000000e+00 1.0000000000000000e+01
0.0000000000000000e+00 1.0000000000000000e+01
ITEM: ATOMS id type xs ys zs
1 1 0.603981 0.48043 0.320908
2 1 0.406533 0.624034 0.426301
3 1 0.535587 0.454533 0.576661
5 1 0.373398 0.365005 0.386891
4 1 0.656522 0.67563 0.49406
ITEM: TIMESTEP
61000
ITEM: NUMBER OF ATOMS
5
ITEM: BOX BOUNDS pp pp pp
0.0000000000000000e+00 1.0000000000000000e+01
0.0000000000000000e+00 1.0000000000000000e+01
0.0000000000000000e+00 1.0000000000000000e+01
ITEM: ATOMS id type xs ys zs
1 1 0.601993 0.482818 0.31924
2 1 0.406505 0.62657 0.419027
3 1 0.539378 0.449797 0.580371
5 1 0.375217 0.367878 0.390531
4 1 0.652929 0.672567 0.495651
ITEM: TIMESTEP
62000
ITEM: NUMBER OF ATOMS
5
ITEM: BOX BOUNDS pp pp pp
0.0000000000000000e+00 1.0000000000000000e+01
0.0000000000000000e+00 1.0000000000000000e+01
0.0000000000000000e+00 1.0000000000000000e+01
ITEM: ATOMS id type xs ys zs
1 1 0.602529 0.481475 0.321715
2 1 0.406503 0.625145 0.423166
3 1 0.537373 0.452844 0.576836
5 1 0.373901 0.365488 0.388215
4 1 0.655716 0.67468 0.494888
ITEM: TIMESTEP
63000
ITEM: NUMBER OF ATOMS
5
ITEM: BOX BOUNDS pp pp pp
0.0000000000000000e+00 1.0000000000000000e+01
0.0000000000000000e+00 1.0000000000000000e+01
0.0000000000000000e+00 1.0000000000000000e+01
ITEM: ATOMS id type xs ys zs
1 1 0.607506 0.476557 0.322822
2 1 0.400231 0.628531 0.429926
3 1 0.536186 0.454371 0.575541
5 1 0.376581 0.367069 0.385474
4 1 0.655518 0.673104 0.491058
ITEM: TIMESTEP
64000
ITEM: NUMBER OF ATOMS
5
ITEM: BOX BOUNDS pp pp pp
0.0000000000000000e+00 1.0000000000000000e+01
0.0000000000000000e+00 1.0000000000000000e+01
0.0000000000000000e+00 1.0000000000000000e+01
ITEM: ATOMS id type xs ys zs
1 1 0.603638 0.479477 0.324576
2 1 0.405078 0.625645 0.425476
3 1 0.53824 0.452081 0.576757
5 1 0.374283 0.367341 0.385918
4 1 0.654782 0.675087 0.492093
ITEM: TIMESTEP
65000
ITEM: NUMBER OF ATOMS
5
ITEM: BOX BOUNDS pp pp pp
0.0000000000000000e+00 1.0000000000000000e+01
0.0000000000000000e+00 1.0000000000000000e+01
0.0000000000000000e+00 1.0000000000000000e+01
ITEM: ATOMS id type xs ys zs
1 1 0.600631 0.484384 0.3183
2 1 0.404934 0.627457 0.4206
3 1 0.535709 0.453531 0.579246
5 1 0.378649 0.36493 0.390826
4 1 0.656099 0.66933 0.495847
ITEM: TIMESTEP
66000
ITEM: NUMBER OF ATOMS
5
ITEM: BOX BOUNDS pp pp pp
0.0000000000000000e+00 1.0000000000000000e+01
0.0000000000000000e+00 1.0000000000000000e+01
0.0000000000000000e+00 1.0000000000000000e+01
ITEM: ATOMS id type xs ys zs
1 1 0.603091 0.481598 0.319874
2 1 0.406226 0.624836 0.42479
3 1 0.535404 0.454489 0.577267
5 1 0.375777 0.365894 0.388499
4 1 0.655524 0.672815 0.494389
ITEM: TIMESTEP
67000
ITEM: NUMBER OF ATOMS
5
ITEM: BOX BOUNDS pp pp pp
0.0000000000000000e+00 1.0000000000000000e+01
0.0000000000000000e+00 1.0000000000000000e+01
0.0000000000000000e+00 1.0000000000000000e+01
ITEM: ATOMS id type xs ys zs
1 1 0.604396 0.479792 0.321661
2 1 0.406535 0.624641 0.424542
3 1 0.537973 0.452067 0.577503
5 1 0.37382 0.368252 0.387663
4 1 0.653298 0.67488 0.493452
ITEM: TIMESTEP
68000
ITEM: NUMBER OF ATOMS
5
ITEM: BOX BOUNDS pp pp pp
0.0000000000000000e+00 1.0000000000000000e+01
0.0000000000000000e+00 1.0000000000000000e+01
0.0000000000000000e+00 1.0000000000000000e+01
ITEM: ATOMS id type xs ys zs
1 1 0.600558 0.483158 0.322044
2 1 0.407475 0.623977 0.42398
3 1 0.535571 0.453838 0.578712
5 1 0.375412 0.364855 0.386748
4 1 0.657006 0.673803 0.493337
ITEM: TIMESTEP
69000
ITEM: NUMBER OF ATOMS
5
ITEM: BOX BOUNDS pp pp pp
0.0000000000000000e+00 1.0000000000000000e+01
0.0000000000000000e+00 1.0000000000000000e+01
0.0000000000000000e+00 1.0000000000000000e+01
ITEM: ATOMS id type xs ys zs
1 1 0.602299 0.480791 0.324303
2 1 0.404723 0.626796 0.423074
3 1 0.538806 0.451623 0.57659
5 1 0.374936 0.366435 0.387373
4 1 0.655257 0.673986 0.493481
ITEM: TIMESTEP
70000
ITEM: NUMBER OF ATOMS
5
ITEM: BOX BOUNDS pp pp pp
0.0000000000000000e+00 1.0000000000000000e+01
0.0000000000000000e+00 1.0000000000000000e+01
0.0000000000000000e+00 1.0000000000000000e+01
ITEM: ATOMS id type xs ys zs
1 1 0.603229 0.480796 0.321836
2 1 0.403679 0.627448 0.423947
3 1 0.537275 0.452987 0.576681
5 1 0.375746 0.365411 0.38812
4 1 0.656093 0.67299 0.494237
ITEM: TIMESTEP
71000
ITEM: NUMBER OF ATOMS
5
ITEM: BOX BOUNDS pp pp pp
0.0000000000000000e+00 1.0000000000000000e+01
0.0000000000000000e+00 1.0000000000000000e+01
0.0000000000000000e+00 1.0000000000000000e+01
ITEM: ATOMS id type xs ys zs
1 1 0.604596 0.479897 0.320831
2 1 0.404571 0.6261 0.4255
3 1 0.536546 0.45432 0.57474
5 1 0.374498 0.365338 0.388633
4 1 0.655811 0.673977 0.495115
ITEM: TIMESTEP
72000
ITEM: NUMBER OF ATOMS
5
ITEM: BOX BOUNDS pp pp pp
0.0000000000000000e+00 1.0000000000000000e+01
0.0000000000000000e+00 1.0000000000000000e+01
0.0000000000000000e+00 1.0000000000000000e+01
ITEM: ATOMS id type xs ys zs
1 1 0.60289 0.481915 0.319488
2 1 0.408056 0.62319 0.424731
3 1 0.536025 0.453666 0.578015
5 1 0.37409 0.366351 0.388135
4 1 0.654962 0.674509 0.494452
ITEM: TIMESTEP
73000
ITEM: NUMBER OF ATOMS
5
ITEM: BOX BOUNDS pp pp pp
0.0000000000000000e+00 1.0000000000000000e+01
0.0000000000000000e+00 1.0000000000000000e+01
0.0000000000000000e+00 1.0000000000000000e+01
ITEM: ATOMS id type xs ys zs
1 1 0.601847 0.481964 0.322101
2 1 0.405822 0.625766 0.423161
3 1 0.538041 0.45133 0.579463
5 1 0.375311 0.366857 0.387114
4 1 0.655002 0.673715 0.492983
ITEM: TIMESTEP
74000
ITEM: NUMBER OF ATOMS
5
ITEM: BOX BOUNDS pp pp pp
0.0000000000000000e+00 1.0000000000000000e+01
0.0000000000000000e+00 1.0000000000000000e+01
0.0000000000000000e+00 1.0000000000000000e+01
ITEM: ATOMS id type xs ys zs
1 1 0.601611 0.481877 0.322979
2 1 0.405344 0.626145 0.423327
3 1 0.537911 0.452296 0.577003
5 1 0.374642 0.365031 0.387408
4 1 0.656514 0.674283 0.494103
ITEM: TIMESTEP
75000
ITEM: NUMBER OF ATOMS
5
ITEM: BOX BOUNDS pp pp pp
0.0000000000000000e+00 1.0000000000000000e+01
0.0000000000000000e+00 1.0000000000000000e+01
0.0000000000000000e+00 1.0000000000000000e+01
ITEM: ATOMS id type xs ys zs
1 1 0.603835 0.480377 0.321449
2 1 0.402633 0.627324 0.427078
3 1 0.535505 0.454964 0.575624
5 1 0.37732 0.365206 0.387454
4 1 0.65673 0.67176 0.493216
ITEM: TIMESTEP
76000
ITEM: NUMBER OF ATOMS
5
ITEM: BOX BOUNDS pp pp pp
0.0000000000000000e+00 1.0000000000000000e+01
0.0000000000000000e+00 1.0000000000000000e+01
0.0000000000000000e+00 1.0000000000000000e+01
ITEM: ATOMS id type xs ys zs
1 1 0.603819 0.480428 0.321345