LAMMPS (7 Feb 2024 - Update 1)
OMP_NUM_THREADS environment is not set. Defaulting to 1 thread. (src/comm.cpp:98)
  using 1 OpenMP thread(s) per MPI task
#============Initialization=================
units 			metal
atom_style 		atomic
boundary 		p p p

############################################
#              CLI Variables               #
############################################
variable 		seed index 200093          #
variable 		N index 8                  #
variable 		iter index 1000000         #
variable 		iterther index 100000      #
variable 		iexport index 1000         #
variable 		tempchauf index 3000       #
variable 		Tdamp index 0.001          #
variable 		timestep index 0.0001      #
variable 		box_size index 30		   #
############################################
############################################
#=========Simulation box definition=========
lattice 		sc 1.0
Lattice spacing in x,y,z = 1 1 1
region 			bigbox block 0 ${box_size} 0 ${box_size} 0 ${box_size}
region 			bigbox block 0 30 0 ${box_size} 0 ${box_size}
region 			bigbox block 0 30 0 30 0 ${box_size}
region 			bigbox block 0 30 0 30 0 30
create_box 		1 bigbox
Created orthogonal box = (0 0 0) to (30 30 30)
  1 by 1 by 1 MPI processor grid

#==================Atoms====================
region 			safezone block 6 9 6 9 6 9 units box
create_atoms 	1 random ${N} ${seed} safezone
create_atoms 	1 random 8 ${seed} safezone
create_atoms 	1 random 8 200093 safezone
Created 8 atoms
  using lattice units in orthogonal box = (0 0 0) to (30 30 30)
  create_atoms CPU = 0.001 seconds
labelmap 		atom 1 C
mass 			* 12.01



#==========Velocity initialization==========
velocity 		all create 0.0000001 1563967 rot yes dist gaussian

#======Pair style for atom interactions=============
pair_style 		airebo 1.8 1 1
pair_coeff 		* * CH.airebo C
Reading airebo potential file CH.airebo with DATE: 2011-10-25

#==============Neighbor selection===================
neighbor 		0.3 bin
neigh_modify 	every 1 delay 0 check yes



#==============Custom Wall force====================
#==========Wall with harmonic potential=============
#variable       k equal 10.0

#fix             xlo_wall all wall/harmonic xlo EDGE v_k 1.0 0.7
#fix             xhi_wall all wall/harmonic xhi EDGE v_k 1.0 0.7
#fix             ylo_wall all wall/harmonic ylo EDGE v_k 1.0 0.7
#fix             yhi_wall all wall/harmonic yhi EDGE v_k 1.0 0.7
#fix             zlo_wall all wall/harmonic zlo EDGE v_k 1.0 0.7
#fix             zhi_wall all wall/harmonic zhi EDGE v_k 1.0 0.7



#=====================Timestep======================
timestep 		${timestep}
timestep 		0.0001

#===============Define dump command=================
dump 			1 all cfg 100000 ./dump_C8/dump.tensile_*.cfg mass type xs ys zs vx vy vz id

#========System temperature printing info===========
thermo_style 	custom step temp etotal epair pe ke
thermo 			${iexport}	# 1'000'000
thermo 			1000	



#====================CRC Cycle======================

#=============Condensation et chauffe===============

# Minimize during the heating phase
#min_style       sd
#minimize        1.0e-5 1.0e-7 500 1000

fix 			1 all nve
fix 			2 all temp/berendsen 0.0 ${tempchauf} ${Tdamp}
fix 			2 all temp/berendsen 0.0 3000 ${Tdamp}
fix 			2 all temp/berendsen 0.0 3000 0.001
fix             3 all momentum 1 linear 1 1 1 angular rescale

run 			${iter}
run 			1000000
Neighbor list info ...
  update: every = 1 steps, delay = 0 steps, check = yes
  max neighbors/atom: 2000, page size: 100000
  master list distance cutoff = 8.116371
  ghost atom cutoff = 8.116371
  binsize = 4.0581855, bins = 8 8 8
  1 neighbor lists, perpetual/occasional/extra = 1 0 0
  (1) pair airebo, perpetual
      attributes: full, newton on, ghost
      pair build: full/bin/ghost
      stencil: full/ghost/bin/3d
      bin: standard
Per MPI rank memory allocation (min/avg/max) = 3.884 | 3.884 | 3.884 Mbytes
   Step          Temp          TotEng         E_pair         PotEng         KinEng    
         0   1e-07          1296.7082      1296.7082      1296.7082      9.0482101e-11
      1000   28.313515     -31.56684      -31.592459     -31.592459      0.025618664  
      2000   13.485802     -33.401234     -33.413436     -33.413436      0.012202237  
      3000   12.006178     -33.843258     -33.854121     -33.854121      0.010863442  
      4000   14.523394     -34.160178     -34.173319     -34.173319      0.013141072  
      5000   14.261287     -34.211408     -34.224312     -34.224312      0.012903912  
      6000   17.629142     -34.211256     -34.227207     -34.227207      0.015951218  
      7000   21.556875     -34.200346     -34.219851     -34.219851      0.019505113  
      8000   107.08291     -38.630337     -38.727228     -38.727228      0.096890866  
      9000   31.816086     -39.946002     -39.97479      -39.97479       0.028787863  
     10000   32.121039     -40.281073     -40.310137     -40.310137      0.029063791  
     11000   32.104638     -40.30754      -40.336589     -40.336589      0.029048951  
     12000   35.478388     -40.332332     -40.364434     -40.364434      0.032101591  
     13000   38.488718     -40.328232     -40.363057     -40.363057      0.034825401  
     14000   41.6072       -40.30009      -40.337737     -40.337737      0.037647069  
     15000   44.576651     -40.286861     -40.327195     -40.327195      0.04033389   
     16000   45.197887     -40.270297     -40.311193     -40.311193      0.040895998  
     17000   49.715029     -40.295186     -40.34017      -40.34017       0.044983203  
     18000   52.72715      -40.299334     -40.347042     -40.347042      0.047708633  
     19000   55.776869     -40.291092     -40.341561     -40.341561      0.050468083  
     20000   61.035915     -40.27593      -40.331157     -40.331157      0.055226579  
     21000   65.717999     -40.274174     -40.333637     -40.333637      0.059463026  
     22000   65.506691     -40.304575     -40.363847     -40.363847      0.05927183   
     23000   67.745998     -40.280683     -40.341981     -40.341981      0.061298002  
     24000   69.327136     -40.259673     -40.322401     -40.322401      0.06272865   
     25000   74.352638     -40.286844     -40.35412      -40.35412       0.067275829  
     26000   76.732795     -40.269236     -40.338665     -40.338665      0.069429445  
     27000   83.952738     -40.28296      -40.358922     -40.358922      0.075962201  
     28000   86.071418     -40.2851       -40.362979     -40.362979      0.077879227  
     29000   88.453557     -40.253674     -40.333709     -40.333709      0.080034637  
     30000   92.400502     -40.287982     -40.371588     -40.371588      0.083605916  
     31000   94.447764     -40.264809     -40.350267     -40.350267      0.085458322  
     32000   97.06428      -40.268805     -40.356631     -40.356631      0.0878258    
     33000   99.103498     -40.262816     -40.352487     -40.352487      0.089670928  
     34000   104.72615     -40.255826     -40.350584     -40.350584      0.094758418  
     35000   104.12423     -40.273759     -40.367973     -40.367973      0.094213788  
     36000   110.29769     -40.249424     -40.349224     -40.349224      0.099799669  
     37000   109.81207     -40.262156     -40.361516     -40.361516      0.099360267  
     38000   115.45737     -40.241493     -40.345961     -40.345961      0.10446826   
     39000   116.57914     -40.264874     -40.370357     -40.370357      0.10548325   
     40000   120.02701     -40.250636     -40.359239     -40.359239      0.10860296   
     41000   123.67022     -40.241817     -40.353716     -40.353716      0.11189941   
     42000   125.45382     -40.247648     -40.361161     -40.361161      0.11351325   
     43000   128.52949     -40.24388      -40.360176     -40.360176      0.11629618   
     44000   131.91081     -40.250635     -40.36999      -40.36999       0.11935567   
     45000   134.06258     -40.220365     -40.341668     -40.341668      0.12130264   
     46000   137.87146     -40.249978     -40.374727     -40.374727      0.12474899   
     47000   140.13414     -40.23225      -40.359046     -40.359046      0.12679631   
     48000   144.2316      -40.232081     -40.362585     -40.362585      0.13050378   
     49000   147.37132     -40.227542     -40.360886     -40.360886      0.13334467   
     50000   149.11763     -40.222302     -40.357226     -40.357226      0.13492477   
     51000   153.17457     -40.231873     -40.370469     -40.370469      0.13859557   
     52000   157.40999     -40.206991     -40.349419     -40.349419      0.14242787   
     53000   156.40524     -40.22535      -40.366868     -40.366868      0.14151875   
     54000   160.63767     -40.216187     -40.361535     -40.361535      0.14534834   
     55000   166.12358     -40.180274     -40.330586     -40.330586      0.1503121    
     56000   166.81153     -40.217183     -40.368117     -40.368117      0.15093458   
     57000   171.92845     -40.194508     -40.350072     -40.350072      0.15556447   
     58000   173.08796     -40.18358      -40.340193     -40.340193      0.15661363   
     59000   178.77369     -40.19293      -40.354688     -40.354688      0.16175819   
     60000   184.07238     -40.182921     -40.349474     -40.349474      0.16655256   
     61000   181.25901     -40.189528     -40.353535     -40.353535      0.16400696   
     62000   187.05385     -40.183953     -40.353203     -40.353203      0.16925026   
     63000   189.41852     -40.158497     -40.329887     -40.329887      0.17138985   
     64000   191.96668     -40.181779     -40.355474     -40.355474      0.17369548   
     65000   196.59543     -40.173453     -40.351336     -40.351336      0.17788367   
     66000   196.74071     -40.151157     -40.329173     -40.329173      0.17801513   
     67000   199.48361     -40.16687      -40.347367     -40.347367      0.18049696   
     68000   202.44228     -40.170153     -40.353327     -40.353327      0.18317403   
     69000   211.95542     -40.150619     -40.342401     -40.342401      0.19178171   
     70000   208.17739     -40.168199     -40.356562     -40.356562      0.18836327   
     71000   212.90991     -40.156876     -40.349522     -40.349522      0.19264536   
     72000   215.9374      -40.154285     -40.34967      -40.34967       0.1953847    
     73000   215.01141     -40.143661     -40.338208     -40.338208      0.19454684   
     74000   222.29625     -40.160761     -40.361899     -40.361899      0.20113832   
     75000   226.30852     -40.145522     -40.350291     -40.350291      0.2047687    
     76000   227.46184     -40.12174      -40.327552     -40.327552      0.20581225   
     77000   233.93558     -40.137776     -40.349446     -40.349446      0.21166983   
     78000   235.34302     -40.142649     -40.355592     -40.355592      0.21294331   
     79000   235.69642     -40.113735     -40.326998     -40.326998      0.21326308   
     80000   243.98619     -40.126905     -40.347669     -40.347669      0.22076383   
     81000   243.63016     -40.128856     -40.349298     -40.349298      0.22044169   
     82000   245.34951     -40.13173      -40.353727     -40.353727      0.22199739   
     83000   251.99285     -40.120365     -40.348374     -40.348374      0.22800843   
     84000   256.7513      -40.102083     -40.334397     -40.334397      0.23231397   
     85000   251.51827     -40.119046     -40.346625     -40.346625      0.22757902   
     86000   256.85849     -40.134539     -40.36695      -40.36695       0.23241096   
     87000   262.70433     -40.118052     -40.355753     -40.355753      0.2377004    
     88000   266.40448     -40.10196      -40.343008     -40.343008      0.24104837   
     89000   263.5658      -40.100959     -40.339439     -40.339439      0.23847988   
     90000   271.54641     -40.117101     -40.362802     -40.362802      0.2457009    
     91000   274.52064     -40.118027     -40.366419     -40.366419      0.24839205   
     92000   278.86284     -40.106643     -40.358964     -40.358964      0.25232095   
     93000   279.1764      -40.092328     -40.344932     -40.344932      0.25260467   
     94000   278.42041     -40.089773     -40.341694     -40.341694      0.25192063   
     95000   286.27847     -40.093839     -40.35287      -40.35287       0.25903077   
     96000   285.85076     -40.093997     -40.352641     -40.352641      0.25864377   
     97000   292.34958     -40.107426     -40.37195      -40.37195       0.26452404   
     98000   294.71514     -40.088358     -40.355023     -40.355023      0.26666445   
     99000   295.68292     -40.06917      -40.33671      -40.33671       0.26754012   
    100000   300.72854     -40.071518     -40.343623     -40.343623      0.2721055    
    101000   302.58167     -40.059051     -40.332833     -40.332833      0.27378226   
    102000   303.67086     -40.082628     -40.357396     -40.357396      0.27476778   
    103000   310.2667      -40.081211     -40.361947     -40.361947      0.28073583   
    104000   308.36407     -40.079969     -40.358983     -40.358983      0.27901429   
    105000   318.79245     -40.063768     -40.352218     -40.352218      0.28845011   
    106000   318.67864     -40.055426     -40.343773     -40.343773      0.28834713   
    107000   323.55598     -40.06686      -40.35962      -40.35962       0.29276025   
    108000   321.98766     -40.040342     -40.331683     -40.331683      0.2913412    
    109000   326.64951     -40.056235     -40.351794     -40.351794      0.29555934   
    110000   328.52539     -40.04812      -40.345376     -40.345376      0.29725668   
    111000   332.83445     -40.064352     -40.365508     -40.365508      0.3011556    
    112000   333.13674     -40.054735     -40.356164     -40.356164      0.30142912   
    113000   339.19893     -40.059874     -40.366788     -40.366788      0.30691432   
    114000   342.44658     -40.055347     -40.3652       -40.3652        0.30985286   
    115000   347.74673     -40.033247     -40.347896     -40.347896      0.31464855   
    116000   349.31494     -40.027187     -40.343255     -40.343255      0.3160675    
    117000   349.09422     -40.010403     -40.32627      -40.32627       0.31586779   
    118000   355.24072     -40.024974     -40.346403     -40.346403      0.32142927   
    119000   360.70089     -40.000165     -40.326535     -40.326535      0.32636975   
    120000   363.59786     -40.012918     -40.341909     -40.341909      0.32899099   
    121000   359.41083     -40.010635     -40.335837     -40.335837      0.32520247   
    122000   365.042       -40.003182     -40.333479     -40.333479      0.33029767   
    123000   369.06428     -40.000872     -40.334809     -40.334809      0.33393712   
    124000   372.21586     -40.018831     -40.355619     -40.355619      0.33678873   
    125000   372.30463     -40.020561     -40.35743      -40.35743       0.33686905   
    126000   379.27082     -40.020383     -40.363555     -40.363555      0.34317221   
    127000   380.02785     -40.019096     -40.362954     -40.362954      0.34385719   
    128000   383.78435     -39.986871     -40.334128     -40.334128      0.34725614   
    129000   386.91478     -40.013784     -40.363873     -40.363873      0.35008863   
    130000   389.05687     -39.991601     -40.343628     -40.343628      0.35202683   
    131000   394.11559     -40.004763     -40.361367     -40.361367      0.35660407   
    132000   397.08787     -40.001973     -40.361267     -40.361267      0.35929345   
    133000   398.46973     -40.003665     -40.364209     -40.364209      0.36054378   
    134000   399.71504     -39.978411     -40.340081     -40.340081      0.36167057   
    135000   404.82544     -39.99618      -40.362475     -40.362475      0.36629457   
    136000   409.53482     -39.983453     -40.354009     -40.354009      0.37055571   
    137000   410.53504     -39.980881     -40.352341     -40.352341      0.37146073   
    138000   411.64532     -39.970755     -40.34322      -40.34322       0.37246534   
    139000   417.24527     -39.975742     -40.353274     -40.353274      0.37753229   
    140000   418.89568     -39.953406     -40.332431     -40.332431      0.37902561   
    141000   416.52282     -39.969848     -40.346727     -40.346727      0.3768786    
    142000   429.39592     -39.958009     -40.346535     -40.346535      0.38852645   
    143000   431.1656      -39.969788     -40.359915     -40.359915      0.39012769   
    144000   434.80407     -39.966443     -40.359863     -40.359863      0.39341986   
    145000   435.68138     -39.941615     -40.335828     -40.335828      0.39421367   
    146000   438.84617     -39.924224     -40.321301     -40.321301      0.39707724   
    147000   442.39874     -39.934353     -40.334645     -40.334645      0.40029168   
    148000   439.95957     -39.919628     -40.317712     -40.317712      0.39808467   
    149000   447.94494     -39.930261     -40.335571     -40.335571      0.40530999   
    150000   452.52644     -39.892993     -40.302449     -40.302449      0.40945543   
    151000   447.72984     -39.932355     -40.337471     -40.337471      0.40511537   
    152000   453.50295     -39.896877     -40.307216     -40.307216      0.410339     
    153000   456.36255     -39.928006     -40.340933     -40.340933      0.41292643   
    154000   458.70028     -39.907812     -40.322854     -40.322854      0.41504165   
    155000   461.46289     -39.900115     -40.317656     -40.317656      0.41754132   
    156000   463.50549     -39.849996     -40.269385     -40.269385      0.41938951   
    157000   471.23324     -39.882478     -40.30886      -40.30886       0.42638174   
    158000   475.19494     -39.872299     -40.302266     -40.302266      0.42996637   
    159000   480.31198     -39.900272     -40.334868     -40.334868      0.43459637   
    160000   484.45455     -39.870614     -40.308958     -40.308958      0.43834466   
    161000   477.90623     -39.846458     -40.278878     -40.278878      0.4324196    
    162000   495.99151     -39.863629     -40.312412     -40.312412      0.44878354   
    163000   490.16982     -39.880985     -40.324501     -40.324501      0.44351596   
    164000   491.27499     -39.829172     -40.273688     -40.273688      0.44451594   
    165000   493.15622     -39.87954      -40.325758     -40.325758      0.44621811   
    166000   500.30689     -39.894801     -40.347489     -40.347489      0.45268819   
    167000   507.12779     -39.848704     -40.307564     -40.307564      0.45885988   
    168000   502.80598     -39.873344     -40.328293     -40.328293      0.45494942   
    169000   507.64279     -39.900084     -40.35941      -40.35941       0.45932587   
    170000   512.30366     -39.877495     -40.341038     -40.341038      0.46354312   
    171000   512.47441     -39.877664     -40.341362     -40.341362      0.46369761   
    172000   517.29076     -39.868424     -40.33648      -40.33648       0.46805555   
    173000   520.05108     -39.850954     -40.321507     -40.321507      0.47055315   
    174000   526.61538     -39.845454     -40.321947     -40.321947      0.47649266   
    175000   530.49408     -39.820938     -40.30094      -40.30094       0.48000219   
    176000   525.53592     -39.857566     -40.333082     -40.333082      0.47551594   
    177000   530.24753     -39.857699     -40.337478     -40.337478      0.4797791    
    178000   531.46252     -39.856043     -40.336921     -40.336921      0.48087845   
    179000   534.71989     -39.834516     -40.318342     -40.318342      0.48382579   
    180000   537.67839     -39.814158     -40.300661     -40.300661      0.48650271   
    181000   546.38586     -39.827965     -40.322347     -40.322347      0.49438141   
    182000   552.09936     -39.826058     -40.325609     -40.325609      0.4995511    
    183000   544.92343     -39.79591      -40.288968     -40.288968      0.49305817   
    184000   552.22446     -39.840907     -40.340572     -40.340572      0.4996643    
    185000   553.7243      -39.830393     -40.331415     -40.331415      0.50102138   
    186000   557.20615     -39.834922     -40.339093     -40.339093      0.50417184   
    187000   558.25167     -39.807515     -40.312633     -40.312633      0.50511784   
    188000   566.96563     -39.762065     -40.275068     -40.275068      0.51300242   
    189000   563.79665     -39.802165     -40.3123       -40.3123        0.51013505   
    190000   568.26152     -39.746824     -40.260999     -40.260999      0.51417497   
    191000   572.46112     -39.785945     -40.30392      -40.30392       0.51797485   
    192000   572.68956     -39.745091     -40.263272     -40.263272      0.51818155   
    193000   575.05542     -39.725312     -40.245635     -40.245635      0.52032223   
    194000   579.83606     -39.771838     -40.296486     -40.296486      0.52464785   
    195000   585.52381     -39.740414     -40.270209     -40.270209      0.52979424   
    196000   589.50482     -39.757425     -40.290822     -40.290822      0.53339635   
    197000   592.33832     -39.732011     -40.267971     -40.267971      0.53596016   
    198000   598.28184     -39.728721     -40.270059     -40.270059      0.54133798   
    199000   595.39903     -39.753128     -40.291858     -40.291858      0.53872955   
    200000   608.1573      -39.751324     -40.301597     -40.301597      0.5502735    
    201000   601.27833     -39.712217     -40.256266     -40.256266      0.54404927   
    202000   601.38585     -39.690078     -40.234225     -40.234225      0.54414656   
    203000   608.13285     -39.670757     -40.221009     -40.221009      0.55025139   
    204000   604.97173     -39.676835     -40.224226     -40.224226      0.54739114   
    205000   622.74721     -39.734262     -40.297737     -40.297737      0.56347476   
    206000   611.81442     -39.753347     -40.306929     -40.306929      0.55358254   
    207000   619.29003     -39.726833     -40.28718      -40.28718       0.56034663   
    208000   613.26804     -39.675717     -40.230615     -40.230615      0.55489781   
    209000   633.67453     -39.672308     -40.24567      -40.24567       0.57336203   
    210000   639.35774     -39.747534     -40.326038     -40.326038      0.57850432   
    211000   638.63944     -39.741166     -40.31902      -40.31902       0.57785438   
    212000   641.99337     -39.700304     -40.281193     -40.281193      0.58088909   
    213000   633.0808      -39.673186     -40.246011     -40.246011      0.57282482   
    214000   635.40214     -39.65269      -40.227615     -40.227615      0.57492521   
    215000   658.02289     -39.710811     -40.306204     -40.306204      0.59539294   
    216000   643.69575     -39.685223     -40.267652     -40.267652      0.58242944   
    217000   640.88085     -39.658566     -40.238448     -40.238448      0.57988246   
    218000   655.51102     -39.631472     -40.224592     -40.224592      0.59312015   
    219000   654.45581     -39.681945     -40.27411      -40.27411       0.59216537   
    220000   661.34028     -39.666427     -40.264822     -40.264822      0.59839458   
    221000   663.18892     -39.651954     -40.252021     -40.252021      0.60006727   
    222000   670.33378     -39.671633     -40.278165     -40.278165      0.60653209   
    223000   665.23691     -39.699547     -40.301467     -40.301467      0.60192034   
    224000   678.75818     -39.705646     -40.3198       -40.3198        0.61415467   
    225000   673.59482     -39.630597     -40.24008      -40.24008       0.60948275   
    226000   684.46459     -39.637455     -40.256773     -40.256773      0.61931794   
    227000   686.37517     -39.689992     -40.311038     -40.311038      0.62104668   
    228000   682.19015     -39.703998     -40.321258     -40.321258      0.61725999   
    229000   683.34036     -39.623967     -40.242268     -40.242268      0.61830071   
    230000   690.96554     -39.66161      -40.28681      -40.28681       0.62520014   
    231000   702.75323     -39.708412     -40.344278     -40.344278      0.63586589   
    232000   688.08103     -39.635276     -40.257867     -40.257867      0.62259018   
    233000   699.38892     -39.641109     -40.273931     -40.273931      0.63282179   
    234000   698.81017     -39.617659     -40.249957     -40.249957      0.63229813   
    235000   712.46279     -39.668587     -40.313238     -40.313238      0.6446513    
    236000   708.66028     -39.535584     -40.176795     -40.176795      0.64121071   
    237000   705.56565     -39.593406     -40.231817     -40.231817      0.63841063   
    238000   714.26386     -39.483997     -40.130278     -40.130278      0.64628095   
    239000   710.98391     -39.577886     -40.2212       -40.2212        0.64331318   
    240000   717.49056     -39.604836     -40.254037     -40.254037      0.64920054   
    241000   727.36896     -39.533168     -40.191307     -40.191307      0.65813872   
    242000   746.80509     -39.576094     -40.251818     -40.251818      0.67572494   
    243000   727.56354     -39.586247     -40.244562     -40.244562      0.65831478   
    244000   720.5591      -39.615296     -40.267273     -40.267273      0.65197701   
    245000   733.55042     -39.556007     -40.219739     -40.219739      0.66373184   
    246000   722.90771     -39.467707     -40.121809     -40.121809      0.65410208   
    247000   740.9181      -39.520979     -40.191378     -40.191378      0.67039827   
    248000   739.53386     -39.598176     -40.267322     -40.267322      0.66914578   
    249000   744.12998     -39.549703     -40.223007     -40.223007      0.67330444   
    250000   756.99844     -39.489941     -40.174889     -40.174889      0.6849481    
    251000   755.74691     -39.516815     -40.200631     -40.200631      0.68381569   
    252000   739.13418     -39.517548     -40.186332     -40.186332      0.66878414   
    253000   790.3579      -39.511943     -40.227076     -40.227076      0.71513243   
    254000   758.46307     -39.500801     -40.187074     -40.187074      0.68627333   
    255000   750.94963     -39.495543     -40.175018     -40.175018      0.67947501   
    256000   765.81622     -39.553297     -40.246223     -40.246223      0.69292661   
    257000   757.49443     -39.537118     -40.222515     -40.222515      0.68539688   
    258000   771.38649     -39.448948     -40.146914     -40.146914      0.6979667    
    259000   792.68351     -39.530538     -40.247775     -40.247775      0.7172367    
    260000   771.0773      -39.545398     -40.243085     -40.243085      0.69768695   
    261000   801.99638     -39.530192     -40.255856     -40.255856      0.72566318   
    262000   779.83108     -39.47816      -40.183768     -40.183768      0.70560755   
    263000   764.02999     -39.486984     -40.178294     -40.178294      0.69131039   
    264000   778.58897     -39.531046     -40.23553      -40.23553       0.70448366   
    265000   792.97271     -39.482877     -40.200376     -40.200376      0.71749838   
    266000   802.51456     -39.458621     -40.184753     -40.184753      0.72613204   
    267000   775.08992     -39.550391     -40.251709     -40.251709      0.70131765   
    268000   810.09965     -39.461936     -40.194931     -40.194931      0.73299519   
    269000   797.64671     -39.475681     -40.197409     -40.197409      0.7217275    
    270000   807.54612     -39.504965     -40.235649     -40.235649      0.7306847    
    271000   813.24911     -39.500909     -40.236753     -40.236753      0.73584488   
    272000   822.32351     -39.491818     -40.235874     -40.235874      0.7440556    
    273000   826.67632     -39.487826     -40.23582      -40.23582       0.74799411   
    274000   816.79706     -39.50466      -40.243715     -40.243715      0.73905515   
    275000   830.36009     -39.540508     -40.291835     -40.291835      0.75132726   
    276000   831.5587      -39.460625     -40.213036     -40.213036      0.75241179   
    277000   842.01639     -39.48392      -40.245794     -40.245794      0.76187413   
    278000   849.09827     -39.471545     -40.239827     -40.239827      0.76828196   
    279000   834.62443     -39.526694     -40.28188      -40.28188       0.75518573   
    280000   834.87657     -39.441769     -40.197183     -40.197183      0.75541386   
    281000   862.242       -39.522913     -40.303088     -40.303088      0.78017468   
    282000   846.59455     -39.555169     -40.321186     -40.321186      0.76601654   
    283000   846.74817     -39.509387     -40.275542     -40.275542      0.76615554   
    284000   856.00675     -39.571958     -40.346491     -40.346491      0.77453289   
    285000   854.95573     -39.471961     -40.245543     -40.245543      0.77358191   
    286000   862.02661     -39.467914     -40.247894     -40.247894      0.77997979   
    287000   862.2757      -39.439725     -40.21993      -40.21993       0.78020518   
    288000   867.69899     -39.463227     -40.248339     -40.248339      0.78511228   
    289000   877.96267     -39.543988     -40.338387     -40.338387      0.79439908   
    290000   861.79737     -39.446466     -40.226238     -40.226238      0.77977237   
    291000   880.8808      -39.439544     -40.236583     -40.236583      0.79703946   
    292000   882.43708     -39.49659      -40.295037     -40.295037      0.79844762   
    293000   885.20583     -39.364742     -40.165695     -40.165695      0.80095284   
    294000   886.28413     -39.397385     -40.199313     -40.199313      0.80192851   
    295000   884.43729     -39.363486     -40.163743     -40.163743      0.80025745   
    296000   901.44433     -39.402717     -40.218363     -40.218363      0.81564577   
    297000   894.71772     -39.350497     -40.160057     -40.160057      0.80955939   
    298000   897.54401     -39.423929     -40.236045     -40.236045      0.81211668   
    299000   878.99999     -39.407189     -40.202526     -40.202526      0.79533766   
    300000   899.14219     -39.361509     -40.175071     -40.175071      0.81356275   
    301000   899.27952     -39.436818     -40.250505     -40.250505      0.81368701   
    302000   897.83272     -39.410232     -40.22261      -40.22261       0.81237792   
    303000   905.37279     -39.381587     -40.200787     -40.200787      0.81920033   
    304000   925.29468     -39.324998     -40.162224     -40.162224      0.83722607   
    305000   915.69348     -39.465566     -40.294105     -40.294105      0.82853871   
    306000   913.00731     -39.355295     -40.181404     -40.181404      0.8261082    
    307000   924.8963      -39.419169     -40.256034     -40.256034      0.83686561   
    308000   930.35344     -39.439125     -40.280928     -40.280928      0.84180334   
    309000   920.25508     -39.326953     -40.159619     -40.159619      0.83266614   
    310000   938.75155     -39.439596     -40.288998     -40.288998      0.84940213   
    311000   935.54787     -39.428262     -40.274765     -40.274765      0.84650337   
    312000   928.47485     -39.385356     -40.22546      -40.22546       0.84010356   
    313000   938.63882     -39.427281     -40.276581     -40.276581      0.84930013   
    314000   937.75501     -39.313039     -40.161539     -40.161539      0.84850044   
    315000   953.98572     -39.366971     -40.230157     -40.230157      0.86318633   
    316000   939.38009     -39.355788     -40.205759     -40.205759      0.84997085   
    317000   946.58262     -39.339344     -40.195832     -40.195832      0.85648785   
    318000   945.88027     -39.381014     -40.236866     -40.236866      0.85585235   
    319000   976.89901     -39.309957     -40.193876     -40.193876      0.88391875   
    320000   969.71048     -39.352292     -40.229707     -40.229707      0.87741442   
    321000   957.47455     -39.367149     -40.233492     -40.233492      0.8663431    
    322000   979.75231     -39.32191      -40.20841      -40.20841       0.88650048   
    323000   948.08956     -39.36809      -40.225941     -40.225941      0.85785136   
    324000   969.71486     -39.302606     -40.180025     -40.180025      0.87741838   
    325000   986.22257     -39.365171     -40.257526     -40.257526      0.8923549    
    326000   977.07867     -39.341978     -40.226059     -40.226059      0.88408131   
    327000   991.08742     -39.313645     -40.210401     -40.210401      0.89675673   
    328000   968.46353     -39.268787     -40.145074     -40.145074      0.87628616   
    329000   990.14766     -39.365753     -40.261659     -40.261659      0.89590641   
    330000   1009.1602     -39.331187     -40.244297     -40.244297      0.9131094    
    331000   993.17326     -39.247507     -40.146151     -40.146151      0.89864403   
    332000   1011.423      -39.328652     -40.243808     -40.243808      0.91515675   
    333000   986.51702     -39.237773     -40.130394     -40.130394      0.89262133   
    334000   986.95985     -39.285105     -40.178127     -40.178127      0.89302202   
    335000   1015.0524     -39.298828     -40.217268     -40.217268      0.91844076   
    336000   992.12956     -39.207672     -40.105371     -40.105371      0.89769967   
    337000   1019.2618     -39.238629     -40.160879     -40.160879      0.92224947   
    338000   1007.6301     -39.196642     -40.108367     -40.108367      0.91172488   
    339000   1020.9339     -39.235314     -40.159076     -40.159076      0.92376246   
    340000   1011.7094     -39.292392     -40.207808     -40.207808      0.91541594   
    341000   1039.4282     -39.197389     -40.137886     -40.137886      0.94049647   
    342000   1018.7751     -39.145016     -40.066826     -40.066826      0.92180913   
    343000   1025.1946     -39.187062     -40.11468      -40.11468       0.92761766   
    344000   1038.1937     -39.257243     -40.196622     -40.196622      0.93937948   
    345000   1042.025      -39.32428      -40.267126     -40.267126      0.94284616   
    346000   1063.3775     -39.253444     -40.21561      -40.21561       0.96216627   
    347000   1029.7961     -39.238317     -40.170098     -40.170098      0.93178116   
    348000   1063.1121     -39.290508     -40.252434     -40.252434      0.96192617   
    349000   1059.4117     -39.249126     -40.207704     -40.207704      0.95857795   
    350000   1029.2535     -39.295523     -40.226813     -40.226813      0.93129024   
    351000   1039.4751     -39.189661     -40.1302       -40.1302        0.94053888   
    352000   1042.7474     -39.248573     -40.192073     -40.192073      0.94349973   
    353000   1089.9429     -39.102619     -40.088823     -40.088823      0.98620325   
    354000   1039.8842     -39.250211     -40.19112      -40.19112       0.94090911   
    355000   1059.563      -39.283069     -40.241784     -40.241784      0.95871484   
    356000   1091.1723     -39.29393      -40.281246     -40.281246      0.98731564   
    357000   1079.604      -39.145931     -40.12278      -40.12278       0.9768484    
    358000   1064.0555     -39.230075     -40.192855     -40.192855      0.96277977   
    359000   1079.9078     -39.181623     -40.158746     -40.158746      0.97712331   
    360000   1081.4934     -39.179438     -40.157996     -40.157996      0.97855797   
    361000   1077.7529     -39.002373     -39.977547     -39.977547      0.97517343   
    362000   1081.6453     -39.20987      -40.188565     -40.188565      0.97869539   
    363000   1082.8752     -39.095208     -40.075016     -40.075016      0.97980824   
    364000   1079.6759     -39.227694     -40.204608     -40.204608      0.97691341   
    365000   1102.0889     -39.145243     -40.142436     -40.142436      0.99719321   
    366000   1101.5484     -39.102067     -40.098771     -40.098771      0.9967041    
    367000   1117.713      -39.25429      -40.26562      -40.26562       1.0113302    
    368000   1086.069      -39.228024     -40.210722     -40.210722      0.98269803   
    369000   1117.8967     -39.067677     -40.079173     -40.079173      1.0114964    
    370000   1120.0689     -39.217774     -40.231236     -40.231236      1.0134619    
    371000   1117.6321     -39.121582     -40.132839     -40.132839      1.011257     
    372000   1104.5796     -39.219413     -40.21886      -40.21886       0.99944684   
    373000   1112.8779     -39.127131     -40.134086     -40.134086      1.0069553    
    374000   1109.5696     -39.119242     -40.123204     -40.123204      1.0039619    
    375000   1117.3695     -39.12778      -40.138799     -40.138799      1.0110194    
    376000   1125.3585     -39.070972     -40.089221     -40.089221      1.0182481    
    377000   1118.1968     -39.23526      -40.247028     -40.247028      1.011768     
    378000   1128.7589     -39.069495     -40.09082      -40.09082       1.0213248    
    379000   1136.2642     -39.155589     -40.183704     -40.183704      1.0281157    
    380000   1135.8048     -39.144993     -40.172693     -40.172693      1.0277       
    381000   1132.6681     -39.125387     -40.150249     -40.150249      1.0248619    
    382000   1135.4805     -39.068046     -40.095453     -40.095453      1.0274066    
    383000   1153.1482     -39.208583     -40.251976     -40.251976      1.0433927    
    384000   1141.7004     -39.080625     -40.113659     -40.113659      1.0330345    
    385000   1145.4275     -39.08268      -40.119087     -40.119087      1.0364069    
    386000   1130.9928     -39.108223     -40.131569     -40.131569      1.023346     
    387000   1189.6062     -39.083938     -40.160319     -40.160319      1.0763807    
    388000   1163.2948     -39.138214     -40.190788     -40.190788      1.0525736    
    389000   1159.3982     -39.082296     -40.131344     -40.131344      1.0490478    
    390000   1164.7197     -39.132995     -40.186857     -40.186857      1.0538628    
    391000   1160.8382     -39.007436     -40.057787     -40.057787      1.0503508    
    392000   1182.0512     -39.045125     -40.11467      -40.11467       1.0695447    
    393000   1182.0303     -38.95329      -40.022816     -40.022816      1.0695258    
    394000   1181.2302     -39.069442     -40.138244     -40.138244      1.0688019    
    395000   1201.641      -39.058943     -40.146213     -40.146213      1.08727      
    396000   1165.0205     -39.11952      -40.173655     -40.173655      1.0541351    
    397000   1168.7323     -39.04667      -40.104164     -40.104164      1.0574935    
    398000   1183.4579     -39.013131     -40.083949     -40.083949      1.0708176    
    399000   1200.2217     -39.075674     -40.16166      -40.16166       1.0859858    
    400000   1192.9639     -39.011288     -40.090707     -40.090707      1.0794188    
    401000   1205.2323     -39.052375     -40.142894     -40.142894      1.0905195    
    402000   1197.6997     -39.033872     -40.117575     -40.117575      1.0837039    
    403000   1208.5199     -39.0591       -40.152594     -40.152594      1.0934942    
    404000   1217.0131     -39.033422     -40.134601     -40.134601      1.101179     
    405000   1225.445      -38.939647     -40.048456     -40.048456      1.1088084    
    406000   1230.4257     -39.088198     -40.201513     -40.201513      1.1133151    
    407000   1207.4721     -39.068253     -40.160799     -40.160799      1.0925462    
    408000   1227.9599     -38.979533     -40.090617     -40.090617      1.1110839    
    409000   1239.4947     -39.134059     -40.255579     -40.255579      1.1215208    
    410000   1223.4578     -39.021251     -40.128262     -40.128262      1.1070104    
    411000   1232.7231     -38.894751     -40.010144     -40.010144      1.1153937    
    412000   1250.4871     -38.920303     -40.05177      -40.05177       1.131467     
    413000   1237.7255     -38.996975     -40.116895     -40.116895      1.11992      
    414000   1251.2078     -39.048902     -40.181021     -40.181021      1.1321191    
    415000   1229.7315     -38.857178     -39.969865     -39.969865      1.1126869    
    416000   1280.3699     -38.786291     -39.944797     -39.944797      1.1585056    
    417000   1254.2071     -38.893608     -40.028441     -40.028441      1.1348329    
    418000   1251.399      -39.081778     -40.21407      -40.21407       1.1322921    
    419000   1253.3912     -38.94035      -40.074444     -40.074444      1.1340947    
    420000   1270.8465     -38.824502     -39.974391     -39.974391      1.1498886    
    421000   1279.7952     -39.002225     -40.160211     -40.160211      1.1579856    
    422000   1249.1392     -38.783953     -39.9142       -39.9142        1.1302474    
    423000   1279.2846     -38.974034     -40.131558     -40.131558      1.1575236    
    424000   1253.0386     -38.848793     -39.982569     -39.982569      1.1337756    
    425000   1317.095      -38.823139     -40.014875     -40.014875      1.1917352    
    426000   1296.8339     -38.984288     -40.157691     -40.157691      1.1734026    
    427000   1286.4467     -39.059211     -40.223215     -40.223215      1.164004     
    428000   1267.7426     -39.006964     -40.154044     -40.154044      1.1470801    
    429000   1290.5475     -38.974846     -40.14256      -40.14256       1.1677145    
    430000   1313.2942     -38.904616     -40.092912     -40.092912      1.1882962    
    431000   1281.7055     -39.07293      -40.232644     -40.232644      1.1597141    
    432000   1276.4299     -39.074971     -40.229911     -40.229911      1.1549406    
    433000   1290.998      -38.948551     -40.116673     -40.116673      1.1681221    
    434000   1309.1795     -38.97183      -40.156403     -40.156403      1.1845731    
    435000   1304.8951     -39.061784     -40.242481     -40.242481      1.1806965    
    436000   1283.3476     -38.975024     -40.136224     -40.136224      1.1611999    
    437000   1303.8286     -39.058108     -40.23784      -40.23784       1.1797315    
    438000   1322.8786     -38.954188     -40.151156     -40.151156      1.1969683    
    439000   1332.0162     -38.96955      -40.174786     -40.174786      1.2052363    
    440000   1305.6874     -38.948351     -40.129765     -40.129765      1.1814134    
    441000   1306.8951     -38.86216      -40.044666     -40.044666      1.1825062    
    442000   1325.657      -38.823917     -40.0234       -40.0234        1.1994823    
    443000   1340.3255     -38.954619     -40.167374     -40.167374      1.2127547    
    444000   1325.3571     -38.876415     -40.075626     -40.075626      1.1992109    
    445000   1331.9727     -38.90121      -40.106407     -40.106407      1.2051969    
    446000   1358.4728     -38.927557     -40.156732     -40.156732      1.2291748    
    447000   1368.0959     -38.796055     -40.033937     -40.033937      1.2378819    
    448000   1366.8432     -38.913872     -40.150621     -40.150621      1.2367485    
    449000   1344.7134     -39.007879     -40.224604     -40.224604      1.216725     
    450000   1346.1744     -38.857318     -40.075365     -40.075365      1.2180468    
    451000   1336.2259     -38.806828     -40.015873     -40.015873      1.2090453    
    452000   1403.7605     -38.864031     -40.134183     -40.134183      1.270152     
    453000   1365.5154     -38.83974      -40.075287     -40.075287      1.235547     
    454000   1339.226      -38.933047     -40.144807     -40.144807      1.2117598    
    455000   1363.5658     -38.787935     -40.021718     -40.021718      1.233783     
    456000   1365.5414     -38.816406     -40.051977     -40.051977      1.2355705    
    457000   1371.9555     -38.84703      -40.088404     -40.088404      1.2413742    
    458000   1346.3007     -38.843077     -40.061238     -40.061238      1.2181612    
    459000   1399.1775     -38.906933     -40.172938     -40.172938      1.2660052    
    460000   1378.5645     -38.751358     -39.998712     -39.998712      1.2473542    
    461000   1361.4091     -38.910436     -40.142267     -40.142267      1.2318315    
    462000   1382.9825     -38.815439     -40.06679      -40.06679       1.2513517    
    463000   1388.9951     -38.892398     -40.14919      -40.14919       1.2567919    
    464000   1381.4481     -38.792059     -40.042023     -40.042023      1.2499632    
    465000   1424.0126     -38.816113     -40.104589     -40.104589      1.2884766    
    466000   1398.3223     -38.835238     -40.10047      -40.10047       1.2652314    
    467000   1402.1819     -38.82124      -40.089964     -40.089964      1.2687237    
    468000   1369.6549     -38.76484      -40.004133     -40.004133      1.2392926    
    469000   1403.6121     -38.632533     -39.902551     -39.902551      1.2700177    
    470000   1410.2111     -38.799197     -40.075186     -40.075186      1.2759887    
    471000   1393.5564     -38.733158     -39.994077     -39.994077      1.2609191    
    472000   1413.2011     -38.773835     -40.052529     -40.052529      1.278694     
    473000   1439.622      -38.773771     -40.076371     -40.076371      1.3026002    
    474000   1434.8929     -38.836392     -40.134713     -40.134713      1.2983213    
    475000   1433.4176     -38.833342     -40.130328     -40.130328      1.2969864    
    476000   1426.7742     -38.667602     -39.958578     -39.958578      1.2909753    
    477000   1392.0031     -38.823637     -40.083151     -40.083151      1.2595137    
    478000   1414.8158     -38.779907     -40.060063     -40.060063      1.2801551    
    479000   1424.0301     -38.761171     -40.049664     -40.049664      1.2884923    
    480000   1457.8427     -38.75923      -40.078317     -40.078317      1.3190867    
    481000   1458.2458     -38.841998     -40.161449     -40.161449      1.3194514    
    482000   1441.7058     -38.845512     -40.149998     -40.149998      1.3044857    
    483000   1448.0709     -38.682961     -39.993206     -39.993206      1.310245     
    484000   1461.325      -38.800766     -40.123003     -40.123003      1.3222376    
    485000   1475.6082     -38.781258     -40.11642      -40.11642       1.3351613    
    486000   1467.7518     -38.77544      -40.103492     -40.103492      1.3280527    
    487000   1427.5601     -38.747732     -40.039419     -40.039419      1.2916864    
    488000   1462.0816     -38.765072     -40.087995     -40.087995      1.3229221    
    489000   1468.6437     -38.848132     -40.176992     -40.176992      1.3288597    
    490000   1474.2906     -38.866348     -40.200317     -40.200317      1.3339691    
    491000   1473.6626     -38.739113     -40.072514     -40.072514      1.3334009    
    492000   1463.8748     -38.754105     -40.078649     -40.078649      1.3245447    
    493000   1489.5127     -38.81136      -40.159102     -40.159102      1.3477423    
    494000   1496.9086     -38.791379     -40.145814     -40.145814      1.3544343    
    495000   1483.438      -38.934142     -40.276388     -40.276388      1.3422458    
    496000   1492.7863     -38.817167     -40.167871     -40.167871      1.3507044    
    497000   1487.2105     -38.73496      -40.08062      -40.08062       1.3456593    
    498000   1502.1272     -38.717048     -40.076204     -40.076204      1.3591562    
    499000   1492.9072     -38.815582     -40.166396     -40.166396      1.3508138    
    500000   1490.816      -38.706685     -40.055606     -40.055606      1.3489217    
    501000   1495.5512     -38.779791     -40.132997     -40.132997      1.3532062    
    502000   1506.7124     -38.842742     -40.206047     -40.206047      1.363305     
    503000   1512.1154     -38.6994       -40.067594     -40.067594      1.3681938    
    504000   1507.1012     -38.894229     -40.257885     -40.257885      1.3636568    
    505000   1503.3411     -38.789986     -40.150241     -40.150241      1.3602547    
    506000   1520.0063     -38.693372     -40.068705     -40.068705      1.3753337    
    507000   1530.2033     -38.716209     -40.100769     -40.100769      1.3845601    
    508000   1519.8494     -38.712527     -40.087719     -40.087719      1.3751917    
    509000   1544.7843     -38.786177     -40.18393      -40.18393       1.3977533    
    510000   1542.0147     -38.88747      -40.282718     -40.282718      1.3952473    
    511000   1555.6517     -38.697169     -40.104756     -40.104756      1.4075863    
    512000   1491.2201     -38.835032     -40.184319     -40.184319      1.3492873    
    513000   1541.8764     -38.715862     -40.110984     -40.110984      1.3951221    
    514000   1529.2892     -38.568456     -39.952189     -39.952189      1.383733     
    515000   1556.8018     -38.650664     -40.059291     -40.059291      1.408627     
    516000   1549.732      -38.479052     -39.881282     -39.881282      1.4022301    
    517000   1561.4629     -38.722313     -40.135157     -40.135157      1.4128444    
    518000   1527.7965     -38.684433     -40.066815     -40.066815      1.3823824    
    519000   1574.3992     -38.493558     -39.918108     -39.918108      1.4245495    
    520000   1578.095      -38.822052     -40.249946     -40.249946      1.4278935    
    521000   1575.2582     -38.598074     -40.023401     -40.023401      1.4253268    
    522000   1543.1178     -38.716831     -40.113077     -40.113077      1.3962454    
    523000   1599.0535     -38.708063     -40.15492      -40.15492       1.4468572    
    524000   1578.6537     -38.704262     -40.132661     -40.132661      1.4283991    
    525000   1550.449      -38.450577     -39.853456     -39.853456      1.4028789    
    526000   1584.0888     -38.670686     -40.104003     -40.104003      1.4333169    
    527000   1576.2812     -38.831608     -40.25786      -40.25786       1.4262524    
    528000   1573.9604     -38.719611     -40.143764     -40.143764      1.4241525    
    529000   1569.4619     -38.685172     -40.105254     -40.105254      1.4200821    
    530000   1638.6212     -38.635977     -40.118636     -40.118636      1.4826589    
    531000   1598.613      -38.556872     -40.00333      -40.00333       1.4464587    
    532000   1609.1973     -38.692648     -40.148684     -40.148684      1.4560355    
    533000   1588.5105     -38.692863     -40.130181     -40.130181      1.4373177    
    534000   1596.4808     -38.764397     -40.208926     -40.208926      1.4445294    
    535000   1598.8822     -38.788552     -40.235254     -40.235254      1.4467022    
    536000   1608.6111     -38.712409     -40.167914     -40.167914      1.4555052    
    537000   1625.5259     -38.697924     -40.168734     -40.168734      1.47081      
    538000   1611.3777     -38.666195     -40.124204     -40.124204      1.4580084    
    539000   1628.5968     -38.743208     -40.216797     -40.216797      1.4735886    
    540000   1607.6388     -38.739508     -40.194134     -40.194134      1.4546254    
    541000   1640.4374     -38.731166     -40.215468     -40.215468      1.4843022    
    542000   1627.4206     -38.711129     -40.183653     -40.183653      1.4725244    
    543000   1624.7737     -38.600231     -40.07036      -40.07036       1.4701294    
    544000   1640.9339     -38.745411     -40.230162     -40.230162      1.4847515    
    545000   1629.6287     -38.75835      -40.232873     -40.232873      1.4745223    
    546000   1637.1466     -38.789172     -40.270497     -40.270497      1.4813247    
    547000   1633.1602     -38.729494     -40.207212     -40.207212      1.4777177    
    548000   1643.6855     -38.749405     -40.236646     -40.236646      1.4872412    
    549000   1673.3753     -38.655655     -40.169761     -40.169761      1.5141051    
    550000   1646.8839     -38.752839     -40.242974     -40.242974      1.4901352    
    551000   1660.7158     -38.726121     -40.228771     -40.228771      1.5026506    
    552000   1661.04       -38.708408     -40.211352     -40.211352      1.5029439    
    553000   1656.137      -38.606375     -40.104882     -40.104882      1.4985075    
    554000   1667.25       -38.659678     -40.168241     -40.168241      1.5085629    
    555000   1681.3886     -38.690305     -40.211661     -40.211661      1.5213558    
    556000   1664.1992     -38.639526     -40.145328     -40.145328      1.5058024    
    557000   1670.5364     -38.740256     -40.251792     -40.251792      1.5115365    
    558000   1675.8972     -38.731915     -40.248302     -40.248302      1.516387     
    559000   1659.2952     -38.726187     -40.227552     -40.227552      1.5013652    
    560000   1666.4609     -38.568126     -40.075975     -40.075975      1.5078489    
    561000   1690.8316     -38.736431     -40.266331     -40.266331      1.5299       
    562000   1693.6438     -38.651651     -40.184096     -40.184096      1.5324445    
    563000   1715.3343     -38.676851     -40.228921     -40.228921      1.5520705    
    564000   1694.7298     -38.748751     -40.282178     -40.282178      1.5334272    
    565000   1689.2961     -38.681472     -40.209983     -40.209983      1.5285106    
    566000   1694.0141     -38.660561     -40.193341     -40.193341      1.5327796    
    567000   1690.6506     -38.660528     -40.190264     -40.190264      1.5297362    
    568000   1699.7986     -38.733705     -40.271718     -40.271718      1.5380135    
    569000   1704.7339     -38.717947     -40.260426     -40.260426      1.5424791    
    570000   1721.945      -38.653707     -40.211759     -40.211759      1.558052     
    571000   1705.9546     -38.662165     -40.205749     -40.205749      1.5435835    
    572000   1723.9876     -38.635971     -40.195872     -40.195872      1.5599002    
    573000   1717.2316     -38.671337     -40.225124     -40.225124      1.5537873    
    574000   1718.9503     -38.700159     -40.255501     -40.255501      1.5553424    
    575000   1723.2124     -38.628397     -40.187595     -40.187595      1.5591988    
    576000   1724.2247     -38.623911     -40.184026     -40.184026      1.5601147    
    577000   1720.1097     -38.580757     -40.137148     -40.137148      1.5563914    
    578000   1754.6491     -38.58653      -40.174174     -40.174174      1.5876434    
    579000   1741.0093     -38.581471     -40.156773     -40.156773      1.5753018    
    580000   1741.4351     -38.544072     -40.119759     -40.119759      1.5756871    
    581000   1740.331      -38.564714     -40.139402     -40.139402      1.5746881    
    582000   1739.2758     -38.614413     -40.188147     -40.188147      1.5737333    
    583000   1716.6193     -38.57389      -40.127124     -40.127124      1.5532332    
    584000   1757.3642     -38.644308     -40.234408     -40.234408      1.5901       
    585000   1751.0073     -38.541352     -40.125701     -40.125701      1.5843482    
    586000   1778.3945     -38.486675     -40.095803     -40.095803      1.6091287    
    587000   1745.5532     -38.572706     -40.152119     -40.152119      1.5794132    
    588000   1762.9611     -38.635858     -40.231022     -40.231022      1.5951643    
    589000   1747.5616     -38.474615     -40.055846     -40.055846      1.5812305    
    590000   1772.8757     -38.560811     -40.164946     -40.164946      1.6041352    
    591000   1765.2518     -38.540738     -40.137975     -40.137975      1.5972369    
    592000   1777.107      -38.629643     -40.237607     -40.237607      1.6079638    
    593000   1781.9427     -38.589487     -40.201826     -40.201826      1.6123392    
    594000   1777.2728     -38.596216     -40.204329     -40.204329      1.6081138    
    595000   1783.0923     -38.575781     -40.18916      -40.18916       1.6133794    
    596000   1777.2142     -38.607754     -40.215814     -40.215814      1.6080608    
    597000   1789.5901     -38.426525     -40.045784     -40.045784      1.6192587    
    598000   1798.3564     -38.498815     -40.126006     -40.126006      1.6271907    
    599000   1818.6778     -38.476023     -40.121601     -40.121601      1.6455779    
    600000   1779.9923     -38.5048       -40.115374     -40.115374      1.6105744    
    601000   1811.7654     -38.524114     -40.163438     -40.163438      1.6393234    
    602000   1810.2569     -38.60485      -40.242809     -40.242809      1.6379585    
    603000   1809.821      -38.53952      -40.177084     -40.177084      1.6375641    
    604000   1818.9685     -38.543031     -40.188872     -40.188872      1.645841     
    605000   1806.6448     -38.505294     -40.139984     -40.139984      1.6346902    
    606000   1813.2276     -38.535059     -40.175705     -40.175705      1.6406464    
    607000   1817.4533     -38.565242     -40.209712     -40.209712      1.6444699    
    608000   1832.5352     -38.598967     -40.257083     -40.257083      1.6581163    
    609000   1809.42       -38.559448     -40.196649     -40.196649      1.6372012    
    610000   1832.4833     -38.577812     -40.235881     -40.235881      1.6580694    
    611000   1845.0349     -38.531725     -40.201151     -40.201151      1.6694263    
    612000   1853.9342     -38.454715     -40.132194     -40.132194      1.6774786    
    613000   1841.4554     -38.402359     -40.068546     -40.068546      1.6661876    
    614000   1836.5618     -38.519873     -40.181633     -40.181633      1.6617597    
    615000   1826.1933     -38.450539     -40.102917     -40.102917      1.652378     
    616000   1841.2322     -38.351118     -40.017104     -40.017104      1.6659856    
    617000   1876.3388     -38.358936     -40.056687     -40.056687      1.6977508    
    618000   1863.0571     -38.499984     -40.185717     -40.185717      1.6857332    
    619000   1854.8102     -38.428837     -40.107108     -40.107108      1.6782712    
    620000   1886.297      -38.489157     -40.195918     -40.195918      1.7067612    
    621000   1855.8052     -38.256547     -39.935718     -39.935718      1.6791716    
    622000   1871.3524     -38.445359     -40.138598     -40.138598      1.693239     
    623000   1854.5186     -38.393747     -40.071754     -40.071754      1.6780074    
    624000   1852.6597     -38.326662     -40.002987     -40.002987      1.6763254    
    625000   1896.9019     -38.332568     -40.048924     -40.048924      1.7163567    
    626000   1881.3375     -38.270094     -39.972367     -39.972367      1.7022737    
    627000   1937.339      -38.309711     -40.062656     -40.062656      1.752945     
    628000   1894.9381     -38.374288     -40.088868     -40.088868      1.7145798    
    629000   1893.704      -38.191213     -39.904676     -39.904676      1.7134631    
    630000   1901.2394     -38.193721     -39.914002     -39.914002      1.7202814    
    631000   1845.8938     -38.362848     -40.033052     -40.033052      1.6702035    
    632000   1882.5785     -38.316733     -40.020129     -40.020129      1.7033966    
    633000   1932.8142     -38.31481      -40.063661     -40.063661      1.7488509    
    634000   1908.2593     -38.200196     -39.926829     -39.926829      1.7266331    
    635000   1923.1893     -38.036933     -39.777076     -39.777076      1.7401421    
    636000   1982.7609     -38.063908     -39.857952     -39.857952      1.7940437    
    637000   1947.8836     -38.146044     -39.90853      -39.90853       1.762486     
    638000   1859.0805     -38.13994      -39.822075     -39.822075      1.6821351    
    639000   1916.2989     -38.268556     -40.002464     -40.002464      1.7339075    
    640000   1895.9049     -38.034637     -39.750092     -39.750092      1.7154546    
    641000   1948.3744     -38.136893     -39.899823     -39.899823      1.7629301    
    642000   1923.5236     -38.349881     -40.090325     -40.090325      1.7404446    
    643000   1898.7873     -38.197506     -39.915569     -39.915569      1.7180627    
    644000   1921.028      -38.294241     -40.032428     -40.032428      1.7381865    
    645000   1920.8517     -38.000337     -39.738364     -39.738364      1.738027     
    646000   1995.2346     -38.149086     -39.954417     -39.954417      1.8053302    
    647000   1929.4099     -38.385885     -40.131656     -40.131656      1.7457706    
    648000   1928.1331     -38.048616     -39.793231     -39.793231      1.7446153    
    649000   1939.3254     -38.227445     -39.982187     -39.982187      1.7547424    
    650000   1943.2029     -38.216018     -39.974269     -39.974269      1.7582509    
    651000   1959.6994     -38.106599     -39.879776     -39.879776      1.7731772    
    652000   1935.4016     -38.087438     -39.83863      -39.83863       1.751192     
    653000   1979.2152     -38.124221     -39.915056     -39.915056      1.7908355    
    654000   1935.117      -38.095202     -39.846137     -39.846137      1.7509345    
    655000   1970.9616     -38.184866     -39.968233     -39.968233      1.7833675    
    656000   2013.1602     -38.066214     -39.887764     -39.887764      1.8215496    
    657000   1929.3399     -38.159427     -39.905134     -39.905134      1.7457073    
    658000   1936.7806     -38.255792     -40.008231     -40.008231      1.7524398    
    659000   1949.4684     -38.094134     -39.858054     -39.858054      1.76392      
    660000   1939.9695     -38.205979     -39.961304     -39.961304      1.7553251    
    661000   1999.6614     -38.188326     -39.997662     -39.997662      1.8093357    
    662000   2001.402      -38.073902     -39.884813     -39.884813      1.8109106    
    663000   2013.5731     -38.197354     -40.019277     -40.019277      1.8219233    
    664000   1960.5358     -38.133278     -39.907212     -39.907212      1.773934     
    665000   1999.532      -38.117342     -39.926561     -39.926561      1.8092185    
    666000   2006.7989     -37.832229     -39.648023     -39.648023      1.8157938    
    667000   2014.6668     -37.903414     -39.726327     -39.726327      1.8229129    
    668000   2010.3172     -38.112033     -39.93101      -39.93101       1.8189772    
    669000   2001.616      -37.847457     -39.658561     -39.658561      1.8111042    
    670000   2017.8897     -38.050035     -39.875864     -39.875864      1.825829     
    671000   2054.3014     -37.526861     -39.385636     -39.385636      1.8587751    
    672000   2013.7541     -37.720978     -39.543065     -39.543065      1.8220871    
    673000   2014.3664     -37.92077      -39.743412     -39.743412      1.8226411    
    674000   2011.3647     -37.798386     -39.618311     -39.618311      1.8199251    
    675000   2081.0558     -37.983953     -39.866936     -39.866936      1.882983     
    676000   1990.474      -37.977575     -39.778598     -39.778598      1.8010227    
    677000   2025.2526     -37.773117     -39.605608     -39.605608      1.8324911    
    678000   2019.1422     -37.849935     -39.676898     -39.676898      1.8269623    
    679000   2022.692      -37.943837     -39.774011     -39.774011      1.8301742    
    680000   1993.0916     -37.883126     -39.686517     -39.686517      1.8033912    
    681000   2034.8589     -38.086864     -39.928047     -39.928047      1.8411831    
    682000   2055.9139     -37.946902     -39.807136     -39.807136      1.8602341    
    683000   2039.5511     -37.678994     -39.524423     -39.524423      1.8454287    
    684000   2093.978      -37.647954     -39.542629     -39.542629      1.8946753    
    685000   2019.5551     -37.986872     -39.814208     -39.814208      1.8273359    
    686000   2077.1883     -37.807632     -39.687116     -39.687116      1.8794836    
    687000   2045.288      -38.024665     -39.875284     -39.875284      1.8506196    
    688000   2083.7965     -38.106588     -39.992051     -39.992051      1.8854629    
    689000   2040.618      -37.630609     -39.477003     -39.477003      1.8463941    
    690000   2042.5491     -37.903665     -39.751807     -39.751807      1.8481413    
    691000   2068.9128     -37.461187     -39.333182     -39.333182      1.8719958    
    692000   2103.8713     -37.975959     -39.879586     -39.879586      1.903627     
    693000   2077.5487     -38.129496     -40.009306     -40.009306      1.8798098    
    694000   2090.0536     -37.788111     -39.679235     -39.679235      1.8911245    
    695000   2090.9533     -37.862785     -39.754724     -39.754724      1.8919385    
    696000   2065.9774     -37.643535     -39.512875     -39.512875      1.8693398    
    697000   2046.4224     -37.918713     -39.770359     -39.770359      1.851646     
    698000   2070.4484     -37.957871     -39.831256     -39.831256      1.8733852    
    699000   2068.5065     -37.723189     -39.594817     -39.594817      1.8716281    
    700000   2037.041      -37.807835     -39.650993     -39.650993      1.8431575    
    701000   2113.8787     -37.530518     -39.4432       -39.4432        1.9126819    
    702000   2053.2577     -37.4546       -39.312431     -39.312431      1.8578307    
    703000   2101.762      -37.304042     -39.205761     -39.205761      1.9017185    
    704000   2060.3712     -37.619137     -39.483405     -39.483405      1.8642672    
    705000   2169.4111     -37.575544     -39.538472     -39.538472      1.9629287    
    706000   2178.232      -37.227458     -39.198368     -39.198368      1.9709101    
    707000   2084.1791     -37.111134     -38.996943     -38.996943      1.8858091    
    708000   2258.5057     -37.12301      -39.166554     -39.166554      2.0435434    
    709000   2169.5664     -37.378202     -39.341271     -39.341271      1.9630693    
    710000   2106.6228     -37.269315     -39.175432     -39.175432      1.9061166    
    711000   2219.1369     -37.540264     -39.548186     -39.548186      2.0079217    
    712000   2030.6403     -37.168593     -39.005959     -39.005959      1.837366     
    713000   2023.8242     -37.587029     -39.418228     -39.418228      1.8311987    
    714000   2122.2042     -37.421965     -39.342179     -39.342179      1.9202149    
    715000   2162.6163     -37.370302     -39.327083     -39.327083      1.9567807    
    716000   2140.1756     -37.670653     -39.607129     -39.607129      1.9364758    
    717000   2180.7988     -37.734715     -39.707947     -39.707947      1.9732326    
    718000   2110.4168     -37.732039     -39.641589     -39.641589      1.9095494    
    719000   2128.4753     -37.46849      -39.394379     -39.394379      1.9258892    
    720000   2199.1066     -37.936776     -39.926574     -39.926574      1.9897978    
    721000   2154.8769     -37.806714     -39.756492     -39.756492      1.9497779    
    722000   2126.4394     -38.053046     -39.977093     -39.977093      1.9240471    
    723000   2149.4623     -37.606681     -39.55156      -39.55156       1.9448786    
    724000   2150.2215     -37.874917     -39.820482     -39.820482      1.9455656    
    725000   2156.8548     -37.578687     -39.530254     -39.530254      1.9515675    
    726000   2144.7174     -37.775345     -39.71593      -39.71593       1.9405854    
    727000   2181.8072     -37.390012     -39.364157     -39.364157      1.974145     
    728000   2217.4073     -37.36084      -39.367197     -39.367197      2.0063568    
    729000   2202.4947     -37.659934     -39.652798     -39.652798      1.9928635    
    730000   2270.0374     -37.61843      -39.672408     -39.672408      2.0539775    
    731000   2219.7404     -37.51135      -39.519818     -39.519818      2.0084678    
    732000   2123.0191     -37.441951     -39.362903     -39.362903      1.9209523    
    733000   2145.6431     -37.426057     -39.36748      -39.36748       1.941423     
    734000   2240.1657     -37.461932     -39.488881     -39.488881      2.026949     
    735000   2111.8499     -37.85638      -39.767226     -39.767226      1.9108462    
    736000   2203.8204     -37.920285     -39.914348     -39.914348      1.994063     
    737000   2232.5885     -37.61394      -39.634033     -39.634033      2.020093     
    738000   2236.8837     -37.155143     -39.179122     -39.179122      2.0239794    
    739000   2201.568      -37.618587     -39.610612     -39.610612      1.992025     
    740000   2192.2963     -37.824313     -39.807949     -39.807949      1.9836357    
    741000   2267.2094     -37.356741     -39.40816      -39.40816       2.0514187    
    742000   2190.5187     -37.654255     -39.636283     -39.636283      1.9820274    
    743000   2279.9491     -37.758086     -39.821032     -39.821032      2.0629459    
    744000   2240.5022     -37.53901      -39.566263     -39.566263      2.0272535    
    745000   2247.4414     -37.950644     -39.984176     -39.984176      2.0335322    
    746000   2210.4738     -37.896643     -39.896727     -39.896727      2.0000832    
    747000   2255.2464     -37.648766     -39.68936      -39.68936       2.0405943    
    748000   2213.8023     -37.488644     -39.491739     -39.491739      2.0030948    
    749000   2245.4044     -37.841844     -39.873533     -39.873533      2.0316891    
    750000   2310.2449     -37.678983     -39.769341     -39.769341      2.0903581    
    751000   2234.7727     -38.163971     -40.18604      -40.18604       2.0220693    
    752000   2263.0501     -37.709018     -39.756673     -39.756673      2.0476553    
    753000   2203.1304     -37.703827     -39.697266     -39.697266      1.9934387    
    754000   2245.9111     -37.930221     -39.962368     -39.962368      2.0321476    
    755000   2255.3915     -37.808143     -39.848868     -39.848868      2.0407257    
    756000   2342.3062     -37.998594     -40.117962     -40.117962      2.1193679    
    757000   2272.9081     -38.003222     -40.059797     -40.059797      2.056575     
    758000   2297.6284     -37.754616     -39.833559     -39.833559      2.0789425    
    759000   2260.1985     -37.644657     -39.689732     -39.689732      2.0450751    
    760000   2287.0266     -37.8089       -39.87825      -39.87825       2.0693497    
    761000   2267.8865     -37.813115     -39.865147     -39.865147      2.0520314    
    762000   2273.1047     -37.688089     -39.744842     -39.744842      2.0567529    
    763000   2268.1867     -37.879475     -39.931778     -39.931778      2.0523029    
    764000   2268.0248     -37.876557     -39.928714     -39.928714      2.0521565    
    765000   2302.5728     -37.877346     -39.960762     -39.960762      2.0834162    
    766000   2325.8016     -37.82385      -39.928284     -39.928284      2.1044342    
    767000   2239.1874     -37.780608     -39.806672     -39.806672      2.0260638    
    768000   2318.4723     -37.505639     -39.603441     -39.603441      2.0978024    
    769000   2305.2909     -37.904189     -39.990065     -39.990065      2.0858756    
    770000   2350.0134     -37.673444     -39.799785     -39.799785      2.1263415    
    771000   2291.3098     -37.87194      -39.945165     -39.945165      2.0732253    
    772000   2373.4456     -37.536953     -39.684497     -39.684497      2.1475435    
    773000   2317.6999     -37.681169     -39.778273     -39.778273      2.0971035    
    774000   2313.2225     -37.739603     -39.832655     -39.832655      2.0930523    
    775000   2287.7607     -37.302594     -39.372608     -39.372608      2.070014     
    776000   2304.1862     -37.896052     -39.980928     -39.980928      2.0848761    
    777000   2345.8967     -37.835945     -39.958562     -39.958562      2.1226166    
    778000   2307.6895     -37.928745     -40.016791     -40.016791      2.088046     
    779000   2385.9253     -37.462803     -39.621638     -39.621638      2.1588354    
    780000   2344.4009     -37.783723     -39.904986     -39.904986      2.1212632    
    781000   2380.6583     -37.709342     -39.863411     -39.863411      2.1540697    
    782000   2285.3194     -37.654706     -39.722511     -39.722511      2.067805     
    783000   2378.6759     -37.734808     -39.887084     -39.887084      2.152276     
    784000   2365.5966     -37.796396     -39.936837     -39.936837      2.1404416    
    785000   2329.9741     -37.438363     -39.546573     -39.546573      2.1082095    
    786000   2340.0225     -37.819186     -39.936488     -39.936488      2.1173015    
    787000   2341.8601     -37.268628     -39.387593     -39.387593      2.1189642    
    788000   2331.0135     -37.594772     -39.703922     -39.703922      2.10915      
    789000   2355.1309     -37.422281     -39.553253     -39.553253      2.130972     
    790000   2359.1131     -37.498665     -39.63324      -39.63324       2.1345751    
    791000   2317.9983     -37.459976     -39.557349     -39.557349      2.0973736    
    792000   2358.2243     -37.686369     -39.82014      -39.82014       2.1337709    
    793000   2404.8326     -37.266919     -39.442862     -39.442862      2.1759431    
    794000   2366.7964     -37.253967     -39.395494     -39.395494      2.1415271    
    795000   2366.8098     -37.364662     -39.506201     -39.506201      2.1415392    
    796000   2378.2211     -37.519165     -39.67103      -39.67103       2.1518644    
    797000   2392.0504     -37.462544     -39.626921     -39.626921      2.1643774    
    798000   2421.1015     -37.618769     -39.809432     -39.809432      2.1906635    
    799000   2329.849      -37.172539     -39.280636     -39.280636      2.1080964    
    800000   2420.1322     -37.339299     -39.529085     -39.529085      2.1897864    
    801000   2492.7471     -37.145154     -39.400644     -39.400644      2.25549      
    802000   2501.715      -37.531135     -39.79474      -39.79474       2.2636043    
    803000   2389.8234     -37.311006     -39.473369     -39.473369      2.1623624    
    804000   2430.7945     -37.495479     -39.694913     -39.694913      2.1994339    
    805000   2324.1542     -37.154098     -39.257042     -39.257042      2.1029435    
    806000   2417.9499     -37.157978     -39.34579      -39.34579       2.1878119    
    807000   2437.0282     -37.323642     -39.528717     -39.528717      2.2050743    
    808000   2449.5935     -36.84984      -39.066283     -39.066283      2.2164437    
    809000   2446.9092     -37.550034     -39.764049     -39.764049      2.2140148    
    810000   2473.0177     -37.303466     -39.541104     -39.541104      2.2376383    
    811000   2446.1741     -37.257476     -39.470826     -39.470826      2.2133498    
    812000   2427.2126     -37.409838     -39.606031     -39.606031      2.196193     
    813000   2374.5504     -37.106451     -39.254994     -39.254994      2.1485431    
    814000   2455.0374     -37.604546     -39.825916     -39.825916      2.2213694    
    815000   2458.4546     -37.059775     -39.284237     -39.284237      2.2244613    
    816000   2458.6518     -37.515779     -39.740419     -39.740419      2.2246398    
    817000   2487.4538     -37.035973     -39.286673     -39.286673      2.2507005    
    818000   2493.3124     -37.381783     -39.637785     -39.637785      2.2560015    
    819000   2419.1523     -37.588747     -39.777647     -39.777647      2.1888999    
    820000   2463.508      -37.548253     -39.777287     -39.777287      2.2290338    
    821000   2483.8574     -37.665316     -39.912763     -39.912763      2.2474464    
    822000   2441.7157     -37.316245     -39.525561     -39.525561      2.2093156    
    823000   2470.6577     -37.394429     -39.629932     -39.629932      2.235503     
    824000   2459.7505     -37.048176     -39.27381      -39.27381       2.2256339    
    825000   2393.1135     -37.607279     -39.772619     -39.772619      2.1653394    
    826000   2489.9599     -37.785825     -40.038793     -40.038793      2.2529681    
    827000   2398.6154     -37.377484     -39.547801     -39.547801      2.1703176    
    828000   2517.8462     -36.935806     -39.214006     -39.214006      2.2782001    
    829000   2438.2437     -37.629371     -39.835545     -39.835545      2.2061742    
    830000   2408.055      -37.598725     -39.777584     -39.777584      2.1788588    
    831000   2569.9218     -37.245491     -39.57081      -39.57081       2.3253193    
    832000   2530.6003     -37.3913       -39.681041     -39.681041      2.2897403    
    833000   2532.837      -37.594902     -39.886666     -39.886666      2.2917642    
    834000   2487.9848     -37.248162     -39.499343     -39.499343      2.2511809    
    835000   2443.7771     -37.1664       -39.377581     -39.377581      2.2111809    
    836000   2495.5384     -37.395862     -39.653877     -39.653877      2.2580156    
    837000   2547.2285     -37.450142     -39.754928     -39.754928      2.3047859    
    838000   2514.2256     -37.513188     -39.788113     -39.788113      2.2749241    
    839000   2451.5906     -37.091596     -39.309847     -39.309847      2.2182507    
    840000   2552.1985     -37.068562     -39.377845     -39.377845      2.3092829    
    841000   2489.7407     -37.556837     -39.809607     -39.809607      2.2527697    
    842000   2440.1325     -37.416918     -39.624801     -39.624801      2.2078831    
    843000   2499.0949     -37.296711     -39.557944     -39.557944      2.2612336    
    844000   2519.6737     -37.342998     -39.622852     -39.622852      2.2798537    
    845000   2593.5807     -37.626098     -39.972825     -39.972825      2.3467263    
    846000   2556.1738     -37.372129     -39.685009     -39.685009      2.3128798    
    847000   2534.1775     -37.377646     -39.670623     -39.670623      2.292977     
    848000   2524.7915     -37.267351     -39.551835     -39.551835      2.2844844    
    849000   2572.9132     -37.331581     -39.659607     -39.659607      2.3280259    
    850000   2555.8905     -37.213966     -39.526589     -39.526589      2.3126234    
    851000   2575.5732     -37.724431     -40.054864     -40.054864      2.3304328    
    852000   2531.6125     -37.447267     -39.737923     -39.737923      2.2906562    
    853000   2556.4767     -37.770378     -40.083532     -40.083532      2.3131538    
    854000   2538.5483     -37.725883     -40.022815     -40.022815      2.2969319    
    855000   2502.5661     -37.392603     -39.656978     -39.656978      2.2643744    
    856000   2564.331      -37.357515     -39.677776     -39.677776      2.3202606    
    857000   2554.3945     -37.387464     -39.698734     -39.698734      2.3112698    
    858000   2562.7496     -37.500498     -39.819328     -39.819328      2.3188297    
    859000   2578.4554     -37.234263     -39.567303     -39.567303      2.3330406    
    860000   2577.0277     -36.833864     -39.165613     -39.165613      2.3317488    
    861000   2504.6816     -37.089114     -39.355402     -39.355402      2.2662885    
    862000   2567.8692     -36.931589     -39.255051     -39.255051      2.323462     
    863000   2615.5871     -36.894173     -39.260811     -39.260811      2.3666382    
    864000   2582.1995     -36.974206     -39.310634     -39.310634      2.3364284    
    865000   2546.8022     -36.680901     -38.985301     -38.985301      2.3044002    
    866000   2576.2138     -37.243212     -39.574224     -39.574224      2.3310124    
    867000   2651.751      -37.112639     -39.511999     -39.511999      2.39936      
    868000   2618.8675     -37.271857     -39.641463     -39.641463      2.3696063    
    869000   2559.8055     -37.36602      -39.682186     -39.682186      2.3161658    
    870000   2601.502      -36.957504     -39.311397     -39.311397      2.3538937    
    871000   2664.1413     -37.135417     -39.545988     -39.545988      2.410571     
    872000   2679.484      -37.167503     -39.591957     -39.591957      2.4244534    
[...]
   1888000   653.38672     -39.590925     -40.182123     -40.182123      0.59119804   
   1889000   606.83481     -39.582681     -40.131758     -40.131758      0.54907689   
   1890000   624.7914      -39.637135     -40.202459     -40.202459      0.56532439   
   1891000   629.1167      -39.709365     -40.278603     -40.278603      0.56923801   
   1892000   617.13981     -39.661558     -40.219959     -40.219959      0.55840107   
   1893000   626.95039     -39.740778     -40.308056     -40.308056      0.56727788   
   1894000   626.8332      -39.690643     -40.257815     -40.257815      0.56717185   
   1895000   617.29335     -39.688692     -40.247232     -40.247232      0.55853999   
   1896000   626.50502     -39.692149     -40.259024     -40.259024      0.56687491   
   1897000   628.89299     -39.722277     -40.291313     -40.291313      0.56903559   
   1898000   609.10636     -39.691644     -40.242777     -40.242777      0.55113223   
   1899000   618.5138      -39.690514     -40.250158     -40.250158      0.55964429   
   1900000   602.27972     -39.709452     -40.254407     -40.254407      0.54495535   
   1901000   604.68852     -39.693457     -40.240592     -40.240592      0.54713488   
   1902000   598.91158     -39.711558     -40.253466     -40.253466      0.54190778   
   1903000   593.69872     -39.734724     -40.271915     -40.271915      0.53719108   
   1904000   576.78126     -39.784276     -40.30616      -40.30616       0.52188381   
   1905000   575.74465     -39.783708     -40.304654     -40.304654      0.52094586   
   1906000   577.35205     -39.753457     -40.275857     -40.275857      0.52240026   
   1907000   568.10796     -39.73144      -40.245476     -40.245476      0.51403602   
   1908000   584.0262      -39.780383     -40.308822     -40.308822      0.52843918   
   1909000   573.52526     -39.783168     -40.302106     -40.302106      0.51893771   
   1910000   560.0304      -39.755553     -40.26228      -40.26228       0.50672728   
   1911000   563.60367     -39.764875     -40.274835     -40.274835      0.50996045   
   1912000   565.84143     -39.799943     -40.311928     -40.311928      0.51198522   
   1913000   560.01169     -39.722443     -40.229154     -40.229154      0.50671035   
   1914000   561.18745     -39.81003      -40.317804     -40.317804      0.5077742    
   1915000   547.10492     -39.758297     -40.253329     -40.253329      0.49503203   
   1916000   544.02461     -39.795374     -40.287619     -40.287619      0.4922449    
   1917000   551.61227     -39.776863     -40.275973     -40.275973      0.49911038   
   1918000   537.53612     -39.792346     -40.27872      -40.27872       0.48637398   
   1919000   539.17481     -39.790547     -40.278404     -40.278404      0.4878567    
   1920000   540.62477     -39.781459     -40.270628     -40.270628      0.48916865   
   1921000   535.30508     -39.787176     -40.271531     -40.271531      0.48435528   
   1922000   528.7272      -39.80441      -40.282814     -40.282814      0.47840348   
   1923000   525.75088     -39.766962     -40.242673     -40.242673      0.47571044   
   1924000   531.86978     -39.822079     -40.303326     -40.303326      0.48124695   
   1925000   529.71194     -39.798987     -40.278281     -40.278281      0.4792945    
   1926000   522.00863     -39.774331     -40.246656     -40.246656      0.47232438   
   1927000   511.7339      -39.818426     -40.281454     -40.281454      0.46302759   
   1928000   517.38218     -39.77908      -40.247218     -40.247218      0.46813827   
   1929000   515.93056     -39.838621     -40.305446     -40.305446      0.46682481   
   1930000   504.06917     -39.857536     -40.313628     -40.313628      0.45609237   
   1931000   503.11383     -39.833962     -40.28919      -40.28919       0.45522797   
   1932000   511.32815     -39.845186     -40.307847     -40.307847      0.46266045   
   1933000   501.13467     -39.870747     -40.324185     -40.324185      0.45343718   
   1934000   504.71591     -39.850611     -40.307289     -40.307289      0.45667756   
   1935000   493.25774     -39.879399     -40.325709     -40.325709      0.44630997   
   1936000   485.75249     -39.863043     -40.302562     -40.302562      0.43951906   
   1937000   490.00811     -39.846871     -40.290241     -40.290241      0.44336963   
   1938000   481.60849     -39.894808     -40.330577     -40.330577      0.43576949   
   1939000   490.31355     -39.888862     -40.332508     -40.332508      0.443646     
   1940000   485.37493     -39.87863      -40.317808     -40.317808      0.43917744   
   1941000   475.36304     -39.862098     -40.292217     -40.292217      0.43011846   
   1942000   469.5654      -39.884656     -40.309529     -40.309529      0.42487264   
   1943000   472.36876     -39.864947     -40.292356     -40.292356      0.42740918   
   1944000   471.40721     -39.849138     -40.275677     -40.275677      0.42653915   
   1945000   466.15855     -39.874155     -40.295946     -40.295946      0.42179005   
   1946000   468.77508     -39.88029      -40.304447     -40.304447      0.42415754   
   1947000   463.00238     -39.860803     -40.279737     -40.279737      0.41893428   
   1948000   457.10188     -39.90361      -40.317206     -40.317206      0.41359539   
   1949000   447.10084     -39.874951     -40.279497     -40.279497      0.40454624   
   1950000   453.40741     -39.889012     -40.299264     -40.299264      0.41025255   
   1951000   450.3326      -39.891802     -40.299272     -40.299272      0.4074704    
   1952000   448.17567     -39.896768     -40.302287     -40.302287      0.40551877   
   1953000   442.4509      -39.902486     -40.302825     -40.302825      0.40033887   
   1954000   432.96656     -39.9219       -40.313657     -40.313657      0.39175725   
   1955000   445.23319     -39.917473     -40.320329     -40.320329      0.40285635   
   1956000   429.86957     -39.91817      -40.307125     -40.307125      0.38895502   
   1957000   425.14322     -39.920892     -40.30557      -40.30557       0.38467852   
   1958000   423.64609     -39.911588     -40.294912     -40.294912      0.38332388   
   1959000   422.54204     -39.944366     -40.326691     -40.326691      0.38232492   
   1960000   421.25141     -39.933595     -40.314753     -40.314753      0.38115713   
   1961000   416.77253     -39.940114     -40.317219     -40.317219      0.37710454   
   1962000   418.26627     -39.948791     -40.327247     -40.327247      0.37845611   
   1963000   411.08592     -39.91449      -40.28645      -40.28645       0.37195918   
   1964000   408.28959     -39.967587     -40.337016     -40.337016      0.369429     
   1965000   403.23594     -39.933057     -40.297913     -40.297913      0.36485635   
   1966000   403.18355     -39.968018     -40.332827     -40.332827      0.36480895   
   1967000   397.91363     -39.955438     -40.315479     -40.315479      0.36004061   
   1968000   391.69912     -39.981326     -40.335744     -40.335744      0.35441759   
   1969000   399.83815     -39.964337     -40.326119     -40.326119      0.36178196   
   1970000   395.71566     -39.982606     -40.340658     -40.340658      0.35805185   
   1971000   387.40071     -39.985707     -40.336235     -40.336235      0.35052831   
   1972000   386.8722      -39.990038     -40.340088     -40.340088      0.3500501    
   1973000   378.28088     -40.013547     -40.355823     -40.355823      0.34227649   
   1974000   380.43062     -39.981216     -40.325438     -40.325438      0.34422162   
   1975000   379.70689     -40.004389     -40.347956     -40.347956      0.34356678   
   1976000   364.67436     -39.972013     -40.301978     -40.301978      0.32996503   
   1977000   377.32452     -39.973343     -40.314755     -40.314755      0.34141116   
   1978000   362.9182      -39.990199     -40.318575     -40.318575      0.32837601   
   1979000   365.47744     -39.952408     -40.283099     -40.283099      0.33069167   
   1980000   356.00518     -40.005689     -40.32781      -40.32781       0.32212097   
   1981000   358.50327     -39.996862     -40.321244     -40.321244      0.32438129   
   1982000   348.48295     -39.976244     -40.291559     -40.291559      0.31531469   
   1983000   353.25065     -40.019551     -40.33918      -40.33918       0.31962862   
   1984000   350.0896      -40.017836     -40.334604     -40.334604      0.31676843   
   1985000   341.697       -40.023844     -40.333019     -40.333019      0.30917463   
   1986000   344.27627     -40.008858     -40.320366     -40.320366      0.31150841   
   1987000   336.57216     -40.017462     -40.322        -40.322         0.30453756   
   1988000   339.43378     -40.035279     -40.342406     -40.342406      0.30712682   
   1989000   332.20251     -40.008058     -40.308642     -40.308642      0.30058381   
   1990000   327.1295      -40.048727     -40.34472      -40.34472       0.29599365   
   1991000   328.19789     -40.057063     -40.354023     -40.354023      0.29696035   
   1992000   326.44039     -40.055752     -40.351122     -40.351122      0.29537012   
   1993000   318.34175     -40.063565     -40.351608     -40.351608      0.28804231   
   1994000   320.99277     -40.061449     -40.35189      -40.35189       0.290441     
   1995000   316.63766     -40.064256     -40.350756     -40.350756      0.28650041   
   1996000   311.03768     -40.040551     -40.321985     -40.321985      0.28143343   
   1997000   308.09616     -40.064315     -40.343087     -40.343087      0.27877188   
   1998000   306.44454     -40.070727     -40.348005     -40.348005      0.27727746   
   1999000   305.68419     -40.073688     -40.350278     -40.350278      0.27658948   
   2000000   299.1008      -40.078571     -40.349203     -40.349203      0.27063269   
   2001000   295.16112     -40.056318     -40.323386     -40.323386      0.26706798   
   2002000   295.158       -40.088411     -40.355476     -40.355476      0.26706516   
   2003000   289.452       -40.061453     -40.323355     -40.323355      0.26190226   
   2004000   286.04984     -40.09026      -40.349084     -40.349084      0.25882391   
   2005000   285.25676     -40.113979     -40.372085     -40.372085      0.25810631   
   2006000   281.68379     -40.0969       -40.351773     -40.351773      0.25487341   
   2007000   280.80151     -40.106403     -40.360478     -40.360478      0.25407511   
   2008000   275.58853     -40.060428     -40.309786     -40.309786      0.24935829   
   2009000   271.15183     -40.081375     -40.326718     -40.326718      0.24534387   
   2010000   272.87214     -40.093418     -40.340318     -40.340318      0.24690045   
   2011000   268.06338     -40.110401     -40.35295      -40.35295       0.24254938   
   2012000   262.14921     -40.096166     -40.333365     -40.333365      0.23719812   
   2013000   263.63474     -40.096254     -40.334797     -40.334797      0.23854225   
   2014000   256.61237     -40.11431      -40.346498     -40.346498      0.23218826   
   2015000   253.43299     -40.134682     -40.363994     -40.363994      0.2293115    
   2016000   254.66892     -40.112166     -40.342596     -40.342596      0.23042979   
   2017000   249.21943     -40.113609     -40.339108     -40.339108      0.22549898   
   2018000   247.3827      -40.116174     -40.340011     -40.340011      0.22383707   
   2019000   243.64655     -40.139788     -40.360245     -40.360245      0.22045652   
   2020000   243.012       -40.131079     -40.350962     -40.350962      0.21988237   
   2021000   235.71731     -40.127002     -40.340284     -40.340284      0.21328198   
   2022000   232.96677     -40.131641     -40.342434     -40.342434      0.21079323   
   2023000   230.51609     -40.156315     -40.364891     -40.364891      0.2085758    
   2024000   230.9667      -40.155033     -40.364017     -40.364017      0.20898353   
   2025000   224.6915      -40.144254     -40.34756      -40.34756       0.2033056    
   2026000   224.0644      -40.136295     -40.339033     -40.339033      0.20273818   
   2027000   224.23075     -40.161496     -40.364385     -40.364385      0.20288869   
   2028000   218.28837     -40.167747     -40.365259     -40.365259      0.1975119    
   2029000   214.94487     -40.144626     -40.339113     -40.339113      0.19448663   
   2030000   210.35106     -40.168899     -40.359229     -40.359229      0.19033006   
   2031000   209.5291      -40.181111     -40.370698     -40.370698      0.18958633   
   2032000   203.30725     -40.15099      -40.334946     -40.334946      0.18395667   
   2033000   202.63483     -40.171928     -40.355277     -40.355277      0.18334825   
   2034000   195.20137     -40.189102     -40.365725     -40.365725      0.1766223    
   2035000   194.22875     -40.158575     -40.334317     -40.334317      0.17574226   
   2036000   191.95158     -40.167472     -40.341154     -40.341154      0.17368183   
   2037000   189.4402      -40.20095      -40.372359     -40.372359      0.17140948   
   2038000   186.85858     -40.171626     -40.3407       -40.3407        0.16907357   
   2039000   181.09646     -40.16957      -40.33343      -40.33343       0.16385989   
   2040000   179.84005     -40.204098     -40.366821     -40.366821      0.16272306   
   2041000   178.80131     -40.16969      -40.331473     -40.331473      0.16178319   
   2042000   171.88197     -40.197417     -40.352939     -40.352939      0.15552242   
   2043000   172.01981     -40.197091     -40.352738     -40.352738      0.15564714   
   2044000   170.2403      -40.179565     -40.333602     -40.333602      0.154037     
   2045000   166.67778     -40.223297     -40.374111     -40.374111      0.15081356   
   2046000   162.30918     -40.201561     -40.348422     -40.348422      0.14686076   
   2047000   158.72761     -40.204681     -40.348301     -40.348301      0.14362008   
   2048000   155.65771     -40.229922     -40.370764     -40.370764      0.14084237   
   2049000   152.26453     -40.205007     -40.342779     -40.342779      0.13777215   
   2050000   151.65913     -40.235619     -40.372843     -40.372843      0.13722437   
   2051000   145.29647     -40.2034       -40.334867     -40.334867      0.1314673    
   2052000   143.48021     -40.230272     -40.360096     -40.360096      0.12982391   
   2053000   140.5507      -40.23252      -40.359693     -40.359693      0.12717322   
   2054000   138.10512     -40.205215     -40.330176     -40.330176      0.12496042   
   2055000   135.42886     -40.240827     -40.363366     -40.363366      0.12253888   
   2056000   131.19121     -40.228071     -40.346776     -40.346776      0.11870457   
   2057000   130.43988     -40.251132     -40.369156     -40.369156      0.11802475   
   2058000   125.5426      -40.223363     -40.336957     -40.336957      0.11359359   
   2059000   123.40953     -40.256962     -40.368625     -40.368625      0.11166354   
   2060000   121.75515     -40.239996     -40.350163     -40.350163      0.11016662   
   2061000   116.24785     -40.262182     -40.367366     -40.367366      0.10518349   
   2062000   112.37133     -40.239126     -40.340802     -40.340802      0.10167594   
   2063000   112.07258     -40.267106     -40.368511     -40.368511      0.10140563   
   2064000   107.70591     -40.254494     -40.351949     -40.351949      0.09745457   
   2065000   103.50772     -40.277225     -40.370881     -40.370881      0.093655965  
   2066000   103.19359     -40.253959     -40.34733      -40.34733       0.093371726  
   2067000   100.04078     -40.28128      -40.371799     -40.371799      0.090519003  
   2068000   97.099036     -40.257729     -40.345586     -40.345586      0.087857249  
   2069000   93.237736     -40.296941     -40.381305     -40.381305      0.084363463  
   2070000   90.689316     -40.259562     -40.34162      -40.34162       0.082057599  
   2071000   86.882351     -40.287842     -40.366455     -40.366455      0.078612977  
   2072000   84.451768     -40.285928     -40.362341     -40.362341      0.076413735  
   2073000   80.572752     -40.287058     -40.359962     -40.359962      0.072903919  
   2074000   78.418306     -40.297231     -40.368185     -40.368185      0.070954532  
   2075000   76.102474     -40.280724     -40.349583     -40.349583      0.068859118  
   2076000   71.941986     -40.312153     -40.377247     -40.377247      0.065094621  
   2077000   67.68528      -40.296834     -40.358077     -40.358077      0.061243063  
   2078000   67.233134     -40.313296     -40.37413      -40.37413       0.060833952  
   2079000   62.461294     -40.311121     -40.367638     -40.367638      0.056516292  
   2080000   59.943157     -40.295904     -40.350142     -40.350142      0.054237828  
   2081000   56.256166     -40.329191     -40.380093     -40.380093      0.050901762  
   2082000   53.137786     -40.320573     -40.368653     -40.368653      0.048080185  
   2083000   51.856054     -40.315873     -40.362794     -40.362794      0.046920448  
   2084000   48.121871     -40.337339     -40.380881     -40.380881      0.04354168   
   2085000   44.024764     -40.317023     -40.356857     -40.356857      0.039834531  
   2086000   42.109594     -40.315345     -40.353446     -40.353446      0.038101645  
   2087000   39.026536     -40.344444     -40.379756     -40.379756      0.03531203   
   2088000   35.939199     -40.345292     -40.377811     -40.377811      0.032518542  
   2089000   33.208388     -40.329753     -40.359801     -40.359801      0.030047647  
   2090000   30.608688     -40.34626      -40.373956     -40.373956      0.027695385  
   2091000   27.197929     -40.359038     -40.383647     -40.383647      0.024609258  
   2092000   23.916347     -40.345892     -40.367532     -40.367532      0.021640014  
   2093000   20.606597     -40.332625     -40.35127      -40.35127       0.018645282  
   2094000   18.017966     -40.345454     -40.361757     -40.361757      0.016303034  
   2095000   15.40864      -40.36598      -40.379922     -40.379922      0.013942061  
   2096000   12.063463     -40.375244     -40.386159     -40.386159      0.010915275  
   2097000   8.8604938     -40.371363     -40.37938      -40.37938       0.008017161  
   2098000   5.9170101     -40.364537     -40.369891     -40.369891      0.0053538351 
   2099000   2.9246481     -40.36379      -40.366436     -40.366436      0.0026462831 
   2100000   0.099046913   -40.368096     -40.368186     -40.368186      8.9619728e-05
   2100019   0.04070425    -40.368174     -40.368211     -40.368211      3.6830061e-05
Loop time of 32.626 on 1 procs for 1000000 steps with 8 atoms

Performance: 264.820 ns/day, 0.091 hours/ns, 30650.444 timesteps/s, 245.204 katom-step/s
98.1% CPU use with 1 MPI tasks x 1 OpenMP threads

MPI task timing breakdown:
Section |  min time  |  avg time  |  max time  |%varavg| %total
---------------------------------------------------------------
Pair    | 26.213     | 26.213     | 26.213     |   0.0 | 80.35
Neigh   | 0.74234    | 0.74234    | 0.74234    |   0.0 |  2.28
Comm    | 0.88863    | 0.88863    | 0.88863    |   0.0 |  2.72
Output  | 0.55039    | 0.55039    | 0.55039    |   0.0 |  1.69
Modify  | 3.2443     | 3.2443     | 3.2443     |   0.0 |  9.94
Other   |            | 0.987      |            |       |  3.03

Nlocal:              8 ave           8 max           8 min
Histogram: 1 0 0 0 0 0 0 0 0 0
Nghost:             27 ave          27 max          27 min
Histogram: 1 0 0 0 0 0 0 0 0 0
Neighs:              0 ave           0 max           0 min
Histogram: 1 0 0 0 0 0 0 0 0 0
FullNghs:           56 ave          56 max          56 min
Histogram: 1 0 0 0 0 0 0 0 0 0

Total # of neighbors = 56
Ave neighs/atom = 7
Neighbor list builds = 18054
Dangerous builds = 0
write_restart 	./endconf_C8/endconf*3.restart
System init for write_restart ...

Total wall time: 0:01:06
