LAMMPS data file via write_data, version 7 Feb 2024, timestep = 2100071, units = metal

6 atoms
1 atom types

0 30 xlo xhi
0 30 ylo yhi
0 30 zlo zhi

Atom Type Labels

1 C

Masses

1 12.01

Atoms # atomic

6 1 6.56181015913825 8.10658819241373 7.6998931338210905 0 0 0
4 1 6.7781853412246855 6.7904384226859715 7.30476856204164 0 0 0
1 1 8.024271065536377 6.406521046419 6.818599993792688 0 0 0
2 1 9.06429102970275 7.328155757531487 6.764899064459076 0 0 0
3 1 7.597694963350707 9.032345137758675 7.6313146387388695 0 0 0
5 1 8.853042031548574 8.64013402121147 7.177113387318032 0 0 0

Velocities

6 0.032977794617808406 -0.032481972112639805 0.053044415288054474
4 -0.047831696987206664 0.03706684346577859 -0.09292981121875465
1 0.02576889529407016 -0.023316069641234408 0.03050415053563762
2 0.003633482223715061 -0.009438932743631155 0.07017205553862191
3 0.005489271149403344 0.0033105812134551723 0.04614916988435385
5 -0.02003774629779032 0.024859549818271605 -0.10693998002791315
