LAMMPS (7 Feb 2024 - Update 1)
OMP_NUM_THREADS environment is not set. Defaulting to 1 thread. (src/comm.cpp:98)
  using 1 OpenMP thread(s) per MPI task
#============Initialization=================
units 			metal
atom_style 		atomic
boundary 		p p p

############################################
#              CLI Variables               #
############################################
variable 		seed index 200093          #
variable 		N index 8                  #
variable 		iter index 1000000         #
variable 		iterther index 100000      #
variable 		iexport index 1000         #
variable 		tempchauf index 3000       #
variable 		Tdamp index 0.001          #
variable 		timestep index 0.0001      #
variable 		box_size index 40		   #
############################################
############################################
#=========Simulation box definition=========
lattice 		sc 1.0
Lattice spacing in x,y,z = 1 1 1
region 			bigbox block 0 ${box_size} 0 ${box_size} 0 ${box_size}
region 			bigbox block 0 40 0 ${box_size} 0 ${box_size}
region 			bigbox block 0 40 0 40 0 ${box_size}
region 			bigbox block 0 40 0 40 0 40
create_box 		1 bigbox
Created orthogonal box = (0 0 0) to (40 40 40)
  1 by 1 by 1 MPI processor grid

#==================Atoms====================
region 			safezone block 6 9 6 9 6 9 units box
create_atoms 	1 random ${N} ${seed} safezone
create_atoms 	1 random 8 ${seed} safezone
create_atoms 	1 random 8 200093 safezone
Created 8 atoms
  using lattice units in orthogonal box = (0 0 0) to (40 40 40)
  create_atoms CPU = 0.000 seconds
labelmap 		atom 1 C
mass 			* 12.01



#==========Velocity initialization==========
velocity 		all create 0.0000001 1563967 rot yes dist gaussian

#======Pair style for atom interactions=============
pair_style 		airebo 1.8 1 1
pair_coeff 		* * CH.airebo C
Reading airebo potential file CH.airebo with DATE: 2011-10-25

#==============Neighbor selection===================
neighbor 		0.3 bin
neigh_modify 	every 1 delay 0 check yes



#==============Custom Wall force====================
#==========Wall with harmonic potential=============
#variable       k equal 10.0

#fix             xlo_wall all wall/harmonic xlo EDGE v_k 1.0 0.7
#fix             xhi_wall all wall/harmonic xhi EDGE v_k 1.0 0.7
#fix             ylo_wall all wall/harmonic ylo EDGE v_k 1.0 0.7
#fix             yhi_wall all wall/harmonic yhi EDGE v_k 1.0 0.7
#fix             zlo_wall all wall/harmonic zlo EDGE v_k 1.0 0.7
#fix             zhi_wall all wall/harmonic zhi EDGE v_k 1.0 0.7



#=====================Timestep======================
timestep 		${timestep}
timestep 		0.0001

#===============Define dump command=================
dump 			1 all cfg 100000 ./dump/dump.tensile_*.cfg mass type xs ys zs vx vy vz id

#========System temperature printing info===========
thermo_style 	custom step temp etotal epair pe ke
thermo 			${iexport}	# 1'000'000
thermo 			1000	



#====================CRC Cycle======================

#=============Condensation et chauffe===============

# Minimize during the heating phase
#min_style       sd
#minimize        1.0e-5 1.0e-7 500 1000

fix 			1 all nve
fix 			2 all temp/berendsen 0.0 ${tempchauf} ${Tdamp}
fix 			2 all temp/berendsen 0.0 3000 ${Tdamp}
fix 			2 all temp/berendsen 0.0 3000 0.001
fix             3 all momentum 1 linear 1 1 1 angular rescale

run 			${iter}
run 			1000000
Neighbor list info ...
  update: every = 1 steps, delay = 0 steps, check = yes
  max neighbors/atom: 2000, page size: 100000
  master list distance cutoff = 8.116371
  ghost atom cutoff = 8.116371
  binsize = 4.0581855, bins = 10 10 10
  1 neighbor lists, perpetual/occasional/extra = 1 0 0
  (1) pair airebo, perpetual
      attributes: full, newton on, ghost
      pair build: full/bin/ghost
      stencil: full/ghost/bin/3d
      bin: standard
Per MPI rank memory allocation (min/avg/max) = 3.888 | 3.888 | 3.888 Mbytes
   Step          Temp          TotEng         E_pair         PotEng         KinEng    
         0   1e-07          1296.7082      1296.7082      1296.7082      9.0482101e-11
      1000   28.313515     -31.56684      -31.592459     -31.592459      0.025618664  
      2000   13.485802     -33.401234     -33.413436     -33.413436      0.012202237  
      3000   12.006178     -33.843258     -33.854121     -33.854121      0.010863442  
      4000   14.523394     -34.160178     -34.173319     -34.173319      0.013141072  
      5000   14.261287     -34.211408     -34.224312     -34.224312      0.012903912  
      6000   17.629142     -34.211256     -34.227207     -34.227207      0.015951218  
      7000   21.556875     -34.200346     -34.219851     -34.219851      0.019505113  
      8000   107.08291     -38.630337     -38.727228     -38.727228      0.096890866  
      9000   31.816086     -39.946002     -39.97479      -39.97479       0.028787863  
     10000   32.121039     -40.281073     -40.310137     -40.310137      0.029063791  
     11000   32.104638     -40.30754      -40.336589     -40.336589      0.029048951  
     12000   35.478388     -40.332332     -40.364434     -40.364434      0.032101591  
     13000   38.488718     -40.328232     -40.363057     -40.363057      0.034825401  
     14000   41.6072       -40.30009      -40.337737     -40.337737      0.037647069  
     15000   44.576651     -40.286861     -40.327195     -40.327195      0.04033389   
     16000   45.197887     -40.270297     -40.311193     -40.311193      0.040895998  
     17000   49.715029     -40.295186     -40.34017      -40.34017       0.044983203  
     18000   52.72715      -40.299334     -40.347042     -40.347042      0.047708633  
     19000   55.776859     -40.291092     -40.341561     -40.341561      0.050468074  
     20000   61.035917     -40.27593      -40.331157     -40.331157      0.055226581  
     21000   65.718036     -40.274174     -40.333637     -40.333637      0.05946306   
     22000   65.506351     -40.304574     -40.363846     -40.363846      0.059271523  
     23000   67.745034     -40.280684     -40.341981     -40.341981      0.061297131  
     24000   69.327657     -40.259655     -40.322384     -40.322384      0.062729121  
     25000   74.485898     -40.287207     -40.354604     -40.354604      0.067396405  
     26000   76.789908     -40.270674     -40.340155     -40.340155      0.069481122  
     27000   81.42436      -40.282967     -40.356641     -40.356641      0.073674472  
     28000   86.113228     -40.288771     -40.366688     -40.366688      0.077917059  
     29000   87.118298     -40.249191     -40.328018     -40.328018      0.078826467  
     30000   90.134335     -40.275288     -40.356843     -40.356843      0.081555441  
     31000   92.113061     -40.270678     -40.354024     -40.354024      0.083345834  
     32000   96.077538     -40.273306     -40.360239     -40.360239      0.086932976  
     33000   97.846308     -40.269001     -40.357534     -40.357534      0.088533396  
     34000   98.961067     -40.253806     -40.343348     -40.343348      0.089542053  
     35000   106.90164     -40.275131     -40.371858     -40.371858      0.096726846  
     36000   105.25841     -40.24963      -40.34487      -40.34487       0.09524002   
     37000   112.5799      -40.265397     -40.367262     -40.367262      0.10186466   
     38000   110.71265     -40.239056     -40.339232     -40.339232      0.10017513   
     39000   117.17018     -40.262083     -40.368101     -40.368101      0.10601805   
     40000   120.06358     -40.247201     -40.355837     -40.355837      0.10863605   
     41000   120.87065     -40.256548     -40.365915     -40.365915      0.1093663    
     42000   125.75681     -40.238128     -40.351915     -40.351915      0.1137874    
     43000   128.42281     -40.233548     -40.349748     -40.349748      0.11619966   
     44000   130.47556     -40.247749     -40.365806     -40.365806      0.11805702   
     45000   136.47992     -40.217004     -40.340494     -40.340494      0.1234899    
     46000   136.98145     -40.251506     -40.37545      -40.37545       0.1239437    
     47000   140.94698     -40.219003     -40.346535     -40.346535      0.12753179   
     48000   143.73606     -40.238384     -40.36844      -40.36844       0.13005541   
     49000   146.84598     -40.221007     -40.353876     -40.353876      0.13286933   
     50000   149.87156     -40.222493     -40.3581       -40.3581        0.13560694   
     51000   154.3339      -40.23699      -40.376635     -40.376635      0.13964456   
     52000   154.45836     -40.198968     -40.338725     -40.338725      0.13975717   
     53000   159.54102     -40.229544     -40.3739       -40.3739        0.14435607   
     54000   160.3966      -40.216305     -40.361436     -40.361436      0.14513021   
     55000   165.96143     -40.184847     -40.335012     -40.335012      0.15016539   
     56000   168.28035     -40.217579     -40.369842     -40.369842      0.1522636    
     57000   172.13349     -40.20071      -40.35646      -40.35646       0.15575      
     58000   175.13081     -40.192781     -40.351243     -40.351243      0.15846204   
     59000   177.58336     -40.210305     -40.370986     -40.370986      0.16068116   
     60000   180.19761     -40.187916     -40.350963     -40.350963      0.16304659   
     61000   183.06151     -40.193448     -40.359086     -40.359086      0.1656379    
     62000   186.17001     -40.199077     -40.367528     -40.367528      0.16845054   
     63000   189.79312     -40.174629     -40.346358     -40.346358      0.17172881   
     64000   188.01823     -40.177236     -40.347359     -40.347359      0.17012285   
     65000   197.07864     -40.191152     -40.369473     -40.369473      0.17832089   
     66000   198.45539     -40.162217     -40.341783     -40.341783      0.17956661   
     67000   199.94332     -40.169267     -40.350179     -40.350179      0.18091291   
     68000   203.14719     -40.179528     -40.36334      -40.36334       0.18381184   
     69000   206.29101     -40.170284     -40.356941     -40.356941      0.18665644   
     70000   207.97211     -40.149945     -40.338122     -40.338122      0.18817753   
     71000   212.24249     -40.164665     -40.356706     -40.356706      0.19204146   
     72000   214.6292      -40.159402     -40.353603     -40.353603      0.19420101   
     73000   216.74334     -40.143605     -40.339719     -40.339719      0.19611393   
     74000   222.89044     -40.15981      -40.361486     -40.361486      0.20167595   
     75000   225.14506     -40.16659      -40.370306     -40.370306      0.20371599   
     76000   226.47846     -40.148176     -40.353099     -40.353099      0.20492247   
     77000   228.84717     -40.139553     -40.346618     -40.346618      0.20706573   
     78000   232.0459      -40.140888     -40.350848     -40.350848      0.20996      
     79000   238.66445     -40.161691     -40.37764      -40.37764       0.21594861   
     80000   238.30371     -40.144022     -40.359644     -40.359644      0.2156222    
     81000   242.65876     -40.124179     -40.343742     -40.343742      0.21956275   
     82000   244.95456     -40.124313     -40.345953     -40.345953      0.22164003   
     83000   248.08784     -40.140304     -40.364779     -40.364779      0.22447509   
     84000   255.21204     -40.133349     -40.36427      -40.36427       0.23092122   
     85000   255.38233     -40.120014     -40.35109      -40.35109       0.2310753    
     86000   257.35627     -40.105299     -40.33816      -40.33816       0.23286136   
     87000   257.47769     -40.123502     -40.356473     -40.356473      0.23297123   
     88000   263.21323     -40.119678     -40.357838     -40.357838      0.23816086   
     89000   265.14923     -40.108527     -40.34844      -40.34844       0.2399126    
     90000   269.52822     -40.111787     -40.355662     -40.355662      0.2438748    
     91000   272.47179     -40.084972     -40.33151      -40.33151       0.24653821   
     92000   276.55578     -40.095735     -40.345969     -40.345969      0.25023349   
     93000   276.84572     -40.109278     -40.359774     -40.359774      0.25049583   
     94000   282.1035      -40.104985     -40.360238     -40.360238      0.25525318   
     95000   285.11432     -40.091236     -40.349214     -40.349214      0.25797743   
     96000   284.10773     -40.053005     -40.310072     -40.310072      0.25706665   
     97000   289.64819     -40.084813     -40.346893     -40.346893      0.26207977   
     98000   291.00258     -40.077835     -40.341141     -40.341141      0.26330525   
     99000   299.94544     -40.085024     -40.356421     -40.356421      0.27139694   
    100000   301.97114     -40.085852     -40.359082     -40.359082      0.27322983   
    101000   305.73027     -40.079674     -40.356305     -40.356305      0.27663117   
    102000   304.63174     -40.058004     -40.333641     -40.333641      0.2756372    
    103000   309.54674     -40.039165     -40.319249     -40.319249      0.2800844    
    104000   306.16523     -40.063077     -40.340102     -40.340102      0.27702474   
    105000   313.50537     -40.067256     -40.350922     -40.350922      0.28366625   
    106000   314.83493     -40.073812     -40.358682     -40.358682      0.28486926   
    107000   321.95915     -40.064996     -40.356312     -40.356312      0.2913154    
    108000   323.39587     -40.067087     -40.359702     -40.359702      0.29261538   
    109000   328.28079     -40.032484     -40.32952      -40.32952       0.29703536   
    110000   330.46532     -40.041822     -40.340834     -40.340834      0.29901196   
    111000   334.04092     -40.032122     -40.334369     -40.334369      0.30224724   
    112000   333.86111     -40.027863     -40.329948     -40.329948      0.30208455   
    113000   339.57467     -40.04487      -40.352124     -40.352124      0.3072543    
    114000   341.11843     -40.029585     -40.338236     -40.338236      0.30865113   
    115000   346.69259     -40.046944     -40.360639     -40.360639      0.31369474   
    116000   346.81162     -40.051023     -40.364825     -40.364825      0.31380244   
    117000   347.6918      -40.037301     -40.3519       -40.3519        0.31459885   
    118000   352.76168     -40.040995     -40.360182     -40.360182      0.31918618   
    119000   358.27276     -40.032627     -40.3568       -40.3568        0.32417272   
    120000   359.00276     -40.029884     -40.354717     -40.354717      0.32483324   
    121000   361.19842     -40.02141      -40.34823      -40.34823       0.32681992   
    122000   364.68582     -40.008898     -40.338874     -40.338874      0.32997539   
    123000   368.59237     -39.995483     -40.328993     -40.328993      0.33351013   
    124000   369.46375     -40.003514     -40.337813     -40.337813      0.33429857   
    125000   375.32121     -39.982337     -40.321935     -40.321935      0.33959852   
    126000   375.36057     -39.997993     -40.337628     -40.337628      0.33963414   
    127000   381.98358     -39.989707     -40.335334     -40.335334      0.34562677   
    128000   383.5754      -39.989294     -40.336361     -40.336361      0.34706708   
    129000   386.24204     -39.986808     -40.336288     -40.336288      0.34947992   
    130000   389.35477     -39.994607     -40.346904     -40.346904      0.35229638   
    131000   393.06083     -39.989202     -40.344852     -40.344852      0.3556497    
    132000   397.48729     -39.9786       -40.338255     -40.338255      0.35965486   
    133000   396.90829     -39.987768     -40.346899     -40.346899      0.35913096   
    134000   401.70189     -39.979927     -40.343396     -40.343396      0.36346831   
    135000   401.49024     -39.955366     -40.318643     -40.318643      0.36327681   
    136000   409.52905     -39.96854      -40.33909      -40.33909       0.37055049   
    137000   408.76538     -39.959178     -40.329038     -40.329038      0.3698595    
    138000   412.71177     -39.955724     -40.329154     -40.329154      0.37343028   
    139000   418.208       -39.953042     -40.331445     -40.331445      0.37840339   
    140000   417.66508     -39.94291      -40.320822     -40.320822      0.37791214   
    141000   420.88703     -39.940841     -40.321669     -40.321669      0.38082743   
    142000   429.08076     -39.93026      -40.318501     -40.318501      0.38824129   
    143000   432.52244     -39.937782     -40.329137     -40.329137      0.39135539   
    144000   432.89412     -39.922506     -40.314197     -40.314197      0.39169169   
    145000   430.01044     -39.919998     -40.309081     -40.309081      0.38908248   
    146000   437.75213     -39.927622     -40.323709     -40.323709      0.39608733   
    147000   436.17974     -39.910924     -40.305589     -40.305589      0.39466459   
    148000   442.33188     -39.902659     -40.30289      -40.30289       0.40023118   
    149000   447.12527     -39.877973     -40.282541     -40.282541      0.40456834   
    150000   451.5408      -39.895726     -40.30429      -40.30429       0.4085636    
    151000   459.00819     -39.889003     -40.304323     -40.304323      0.41532026   
    152000   451.75568     -39.863762     -40.27252      -40.27252       0.40875803   
    153000   459.81533     -39.892206     -40.308257     -40.308257      0.41605058   
    154000   463.62276     -39.907812     -40.327308     -40.327308      0.41949561   
    155000   463.87759     -39.879373     -40.299099     -40.299099      0.41972619   
    156000   479.22243     -39.886424     -40.320035     -40.320035      0.43361053   
    157000   477.32151     -39.880735     -40.312626     -40.312626      0.43189053   
    158000   469.56374     -39.91893      -40.343801     -40.343801      0.42487114   
    159000   477.96984     -39.888482     -40.320959     -40.320959      0.43247716   
    160000   482.5205      -39.881026     -40.317621     -40.317621      0.43659469   
    161000   476.87854     -39.878918     -40.310407     -40.310407      0.43148972   
    162000   490.7856      -39.908546     -40.352619     -40.352619      0.44407313   
    163000   486.11421     -39.868739     -40.308586     -40.308586      0.43984635   
    164000   490.66178     -39.877827     -40.321788     -40.321788      0.44396109   
    165000   489.9102      -39.879152     -40.322433     -40.322433      0.44328105   
    166000   503.44623     -39.868934     -40.324463     -40.324463      0.45552873   
    167000   500.48849     -39.883715     -40.336568     -40.336568      0.45285251   
    168000   502.14034     -39.860773     -40.31512      -40.31512       0.45434713   
    169000   510.25187     -39.859404     -40.32109      -40.32109       0.46168662   
    170000   508.1084      -39.836857     -40.296604     -40.296604      0.45974716   
    171000   514.17807     -39.868467     -40.333706     -40.333706      0.46523912   
    172000   523.39215     -39.842911     -40.316487     -40.316487      0.47357622   
    173000   525.17484     -39.877666     -40.352855     -40.352855      0.47518923   
    174000   521.93686     -39.829833     -40.302093     -40.302093      0.47225944   
    175000   518.91751     -39.864454     -40.333982     -40.333982      0.46952747   
    176000   524.44995     -39.845553     -40.320087     -40.320087      0.47453333   
    177000   531.01959     -39.815344     -40.295822     -40.295822      0.48047769   
    178000   533.40202     -39.827969     -40.310602     -40.310602      0.48263335   
    179000   541.0999      -39.844122     -40.33372      -40.33372       0.48959856   
    180000   537.25836     -39.814991     -40.301113     -40.301113      0.48612266   
    181000   543.78328     -39.813255     -40.305282     -40.305282      0.49202654   
    182000   549.76309     -39.847357     -40.344794     -40.344794      0.4974372    
    183000   547.21301     -39.78945      -40.28458      -40.28458       0.49512983   
    184000   554.48353     -39.818466     -40.320175     -40.320175      0.50170835   
    185000   554.84176     -39.793528     -40.29556      -40.29556       0.50203248   
    186000   559.2876      -39.758027     -40.264082     -40.264082      0.50605517   
    187000   558.95847     -39.793174     -40.298932     -40.298932      0.50575737   
    188000   558.00234     -39.801789     -40.306681     -40.306681      0.50489224   
    189000   569.6846      -39.772056     -40.287518     -40.287518      0.5154626    
    190000   564.75545     -39.800852     -40.311855     -40.311855      0.5110026    
    191000   573.44162     -39.801544     -40.320406     -40.320406      0.51886203   
    192000   571.69221     -39.771571     -40.288851     -40.288851      0.51727913   
    193000   576.71361     -39.729342     -40.251165     -40.251165      0.5218226    
    194000   581.3741      -39.754701     -40.28074      -40.28074       0.52603951   
    195000   589.47229     -39.789191     -40.322558     -40.322558      0.53336692   
    196000   593.14682     -39.785914     -40.322605     -40.322605      0.53669171   
    197000   589.11264     -39.757781     -40.290822     -40.290822      0.5330415    
    198000   580.3375      -39.748986     -40.274088     -40.274088      0.52510156   
    199000   587.0082      -39.750091     -40.281229     -40.281229      0.53113735   
    200000   586.37627     -39.716358     -40.246923     -40.246923      0.53056557   
    201000   597.81127     -39.770767     -40.311679     -40.311679      0.5409122    
    202000   609.52757     -39.751919     -40.303432     -40.303432      0.55151335   
    203000   601.91114     -39.76873      -40.313352     -40.313352      0.54462185   
    204000   605.88253     -39.765945     -40.31416      -40.31416       0.54821524   
    205000   619.73205     -39.717706     -40.278453     -40.278453      0.56074658   
    206000   623.13217     -39.73866      -40.302483     -40.302483      0.56382308   
    207000   616.32962     -39.735063     -40.292731     -40.292731      0.55766799   
    208000   625.26814     -39.773599     -40.339355     -40.339355      0.56575575   
    209000   617.32984     -39.735697     -40.29427      -40.29427       0.55857301   
    210000   629.01795     -39.697959     -40.267108     -40.267108      0.56914866   
    211000   636.34081     -39.716422     -40.292196     -40.292196      0.57577454   
    212000   630.0887      -39.71502      -40.285137     -40.285137      0.57011749   
    213000   637.92594     -39.755545     -40.332754     -40.332754      0.57720879   
    214000   641.78204     -39.693624     -40.274322     -40.274322      0.58069787   
    215000   636.86344     -39.70397      -40.280218     -40.280218      0.57624743   
    216000   647.68521     -39.686895     -40.272934     -40.272934      0.58603919   
    217000   647.28816     -39.705309     -40.290989     -40.290989      0.58567993   
    218000   654.21035     -39.660981     -40.252925     -40.252925      0.59194327   
    219000   649.43371     -39.654446     -40.242067     -40.242067      0.58762127   
    220000   659.37475     -39.653619     -40.250235     -40.250235      0.59661613   
    221000   665.13996     -39.697744     -40.299577     -40.299577      0.60183262   
    222000   662.11564     -39.621345     -40.220441     -40.220441      0.59909615   
    223000   655.90341     -39.640344     -40.23382      -40.23382       0.59347519   
    224000   667.18086     -39.622588     -40.226267     -40.226267      0.60367926   
    225000   678.91468     -39.664421     -40.278718     -40.278718      0.61429627   
    226000   679.53375     -39.693613     -40.30847      -40.30847       0.61485642   
    227000   678.94102     -39.685043     -40.299364     -40.299364      0.6143201    
    228000   669.24482     -39.651768     -40.257315     -40.257315      0.60554677   
    229000   688.24312     -39.614083     -40.23682      -40.23682       0.62273684   
    230000   692.53158     -39.624289     -40.250906     -40.250906      0.62661712   
    231000   689.5894      -39.62336      -40.247315     -40.247315      0.62395498   
    232000   674.77773     -39.586413     -40.196966     -40.196966      0.61055307   
    233000   675.15697     -39.595491     -40.206387     -40.206387      0.61089622   
    234000   694.45485     -39.492184     -40.120542     -40.120542      0.62835734   
    235000   712.68316     -39.538685     -40.183536     -40.183536      0.6448507    
    236000   720.41486     -39.518809     -40.170655     -40.170655      0.65184651   
    237000   719.33369     -39.645689     -40.296558     -40.296558      0.65086824   
    238000   713.25052     -39.599532     -40.244896     -40.244896      0.64536406   
    239000   734.58361     -39.504855     -40.169521     -40.169521      0.66466669   
    240000   721.0478      -39.593202     -40.245622     -40.245622      0.6524192    
    241000   715.76896     -39.467212     -40.114854     -40.114854      0.6476428    
    242000   745.53429     -39.453516     -40.128091     -40.128091      0.67457509   
    243000   747.33996     -39.431757     -40.107966     -40.107966      0.6762089    
    244000   729.09564     -39.342018     -40.001719     -40.001719      0.65970105   
    245000   739.13479     -39.521937     -40.190721     -40.190721      0.66878469   
    246000   739.39122     -39.454065     -40.123082     -40.123082      0.66901671   
    247000   735.00444     -39.472786     -40.137834     -40.137834      0.66504746   
    248000   736.99981     -39.512329     -40.179182     -40.179182      0.66685292   
    249000   744.33619     -39.435334     -40.108825     -40.108825      0.67349102   
    250000   750.4901      -39.432047     -40.111106     -40.111106      0.67905921   
    251000   772.73032     -39.51967      -40.218852     -40.218852      0.69918264   
    252000   766.00727     -39.59902      -40.29212      -40.29212       0.69309948   
    253000   763.08683     -39.353117     -40.043574     -40.043574      0.690457     
    254000   731.54872     -39.425418     -40.087339     -40.087339      0.66192066   
    255000   748.03165     -39.369553     -40.046388     -40.046388      0.67683476   
    256000   737.92934     -39.307721     -39.975415     -39.975415      0.66769397   
    257000   755.51415     -39.46708      -40.150685     -40.150685      0.68360508   
    258000   764.1691      -39.480651     -40.172088     -40.172088      0.69143626   
    259000   749.49649     -39.48243      -40.160591     -40.160591      0.67816017   
    260000   812.68944     -39.45599      -40.191328     -40.191328      0.73533849   
    261000   797.79275     -39.387402     -40.109261     -40.109261      0.72185964   
    262000   770.13077     -39.47071      -40.16754      -40.16754       0.6968305    
    263000   771.2532      -39.475813     -40.17366      -40.17366       0.6978461    
    264000   797.26109     -39.507033     -40.228411     -40.228411      0.72137858   
    265000   815.24206     -39.50755      -40.245198     -40.245198      0.73764815   
    266000   809.10943     -39.425809     -40.157909     -40.157909      0.73209922   
    267000   794.49531     -39.477729     -40.196605     -40.196605      0.71887605   
    268000   783.59823     -39.505098     -40.214114     -40.214114      0.70901615   
    269000   810.95079     -39.431592     -40.165358     -40.165358      0.73376531   
    270000   836.05384     -39.475965     -40.232444     -40.232444      0.75647908   
    271000   819.4975      -39.491235     -40.232734     -40.232734      0.74149856   
    272000   811.03712     -39.499449     -40.233292     -40.233292      0.73384343   
    273000   821.83064     -39.404952     -40.148562     -40.148562      0.74360963   
    274000   812.64945     -39.393548     -40.12885      -40.12885       0.7353023    
    275000   835.23759     -39.486684     -40.242425     -40.242425      0.75574053   
    276000   798.23346     -39.313701     -40.035959     -40.035959      0.72225841   
    277000   857.76164     -39.385636     -40.161757     -40.161757      0.77612076   
    278000   826.44322     -39.413416     -40.161199     -40.161199      0.74778319   
    279000   828.13853     -39.409187     -40.158504     -40.158504      0.74931714   
    280000   855.30897     -39.397942     -40.171844     -40.171844      0.77390153   
    281000   817.36751     -39.407846     -40.147417     -40.147417      0.7395713    
    282000   840.78926     -39.404281     -40.165045     -40.165045      0.76076379   
    283000   843.84305     -39.364938     -40.128465     -40.128465      0.76352692   
    284000   860.91936     -39.449091     -40.228069     -40.228069      0.77897793   
    285000   857.34996     -39.453178     -40.228926     -40.228926      0.77574826   
    286000   856.78679     -39.313252     -40.088491     -40.088491      0.77523869   
    287000   867.22875     -39.436554     -40.221241     -40.221241      0.78468679   
    288000   849.51973     -39.329326     -40.097989     -40.097989      0.76866331   
    289000   869.90832     -39.395497     -40.182608     -40.182608      0.78711133   
    290000   875.9236      -39.371134     -40.163688     -40.163688      0.79255408   
    291000   872.04119     -39.265733     -40.054774     -40.054774      0.78904119   
    292000   870.31605     -39.427486     -40.214966     -40.214966      0.78748026   
    293000   881.71758     -39.449745     -40.247542     -40.247542      0.7977966    
    294000   879.3557      -39.475386     -40.271045     -40.271045      0.79565952   
    295000   886.79019     -39.299027     -40.101414     -40.101414      0.8023864    
    296000   883.94763     -39.478201     -40.278015     -40.278015      0.79981439   
    297000   893.22411     -39.402203     -40.210411     -40.210411      0.80820795   
    298000   866.32762     -39.27428      -40.058151     -40.058151      0.78387143   
    299000   909.35984     -39.440061     -40.262869     -40.262869      0.82280789   
    300000   894.6252      -39.319141     -40.128616     -40.128616      0.80947568   
    301000   899.23548     -39.306644     -40.120291     -40.120291      0.81364716   
    302000   904.89016     -39.35484      -40.173603     -40.173603      0.81876364   
    303000   898.25345     -39.438704     -40.251463     -40.251463      0.8127586    
    304000   919.3245      -39.433414     -40.265238     -40.265238      0.83182413   
    305000   918.60177     -39.43073      -40.2619       -40.2619        0.83117019   
    306000   912.29714     -39.439673     -40.265138     -40.265138      0.82546563   
    307000   916.783       -39.362653     -40.192177     -40.192177      0.82952452   
    308000   932.64745     -39.435814     -40.279693     -40.279693      0.84387901   
    309000   930.06666     -39.396663     -40.238207     -40.238207      0.84154386   
    310000   917.81608     -39.443502     -40.273961     -40.273961      0.83045927   
    311000   948.75514     -39.319767     -40.17822      -40.17822       0.85845359   
    312000   935.06298     -39.397849     -40.243914     -40.243914      0.84606463   
    313000   936.35619     -39.404885     -40.25212      -40.25212       0.84723476   
    314000   944.42039     -39.385205     -40.239737     -40.239737      0.85453141   
    315000   952.28792     -39.421134     -40.282784     -40.282784      0.86165013   
    316000   940.78468     -39.351492     -40.202734     -40.202734      0.85124175   
    317000   952.19667     -39.426326     -40.287893     -40.287893      0.86156756   
    318000   946.00571     -39.415947     -40.271913     -40.271913      0.85596585   
    319000   955.73068     -39.416868     -40.281633     -40.281633      0.8647652    
    320000   960.95003     -39.404672     -40.27416      -40.27416       0.86948778   
    321000   969.08785     -39.423339     -40.30019      -40.30019       0.87685105   
    322000   947.9172      -39.387936     -40.245632     -40.245632      0.8576954    
    323000   973.04333     -39.288065     -40.168495     -40.168495      0.88043005   
    324000   975.78418     -39.351855     -40.234765     -40.234765      0.88291003   
    325000   991.55809     -39.390825     -40.288007     -40.288007      0.89718259   
    326000   995.78456     -39.341223     -40.24223      -40.24223       0.90100679   
    327000   981.8744      -39.311106     -40.199526     -40.199526      0.88842059   
    328000   987.64146     -39.338779     -40.232417     -40.232417      0.89363875   
    329000   999.64024     -39.326253     -40.230748     -40.230748      0.90449549   
    330000   999.4941      -39.410116     -40.31448      -40.31448       0.90436327   
    331000   1000.9478     -39.384289     -40.289967     -40.289967      0.90567859   
    332000   994.51901     -39.350345     -40.250207     -40.250207      0.8998617    
    333000   993.96995     -39.353325     -40.25269      -40.25269       0.8993649    
    334000   1007.0745     -39.279212     -40.190434     -40.190434      0.91122221   
    335000   995.86659     -39.338949     -40.24003      -40.24003       0.90108102   
    336000   1003.3799     -39.341146     -40.249025     -40.249025      0.90787926   
    337000   1006.8059     -39.309062     -40.220041     -40.220041      0.91097913   
    338000   1012.5329     -39.352056     -40.268217     -40.268217      0.91616101   
    339000   1017.6686     -39.307855     -40.228663     -40.228663      0.92080791   
    340000   1023.9896     -39.286027     -40.212554     -40.212554      0.92652733   
    341000   1012.2235     -39.275755     -40.191636     -40.191636      0.91588107   
    342000   1039.8646     -39.289703     -40.230594     -40.230594      0.94089136   
    343000   1036.9904     -39.291706     -40.229997     -40.229997      0.93829074   
    344000   1023.0252     -39.287291     -40.212945     -40.212945      0.9256547    
    345000   1023.0304     -39.229336     -40.154995     -40.154995      0.92565941   
    346000   1038.8787     -39.246711     -40.18671      -40.18671       0.9399993    
    347000   1037.7361     -39.219887     -40.158852     -40.158852      0.93896543   
    348000   1025.5052     -39.253323     -40.181221     -40.181221      0.92789861   
    349000   1040.3987     -39.261133     -40.202507     -40.202507      0.94137465   
    350000   1034.3883     -39.263721     -40.199657     -40.199657      0.93593628   
    351000   1046.844      -39.233016     -40.180223     -40.180223      0.94720646   
    352000   1081.1976     -39.240943     -40.219234     -40.219234      0.97829035   
    353000   1082.482      -39.106207     -40.085659     -40.085659      0.97945245   
    354000   1076.7416     -39.249069     -40.223328     -40.223328      0.97425842   
    355000   1063.9335     -39.188109     -40.150778     -40.150778      0.96266935   
    356000   1062.2091     -39.267935     -40.229044     -40.229044      0.96110908   
    357000   1055.0897     -39.214728     -40.169395     -40.169395      0.95466736   
    358000   1083.646      -39.21451      -40.195016     -40.195016      0.98050571   
    359000   1080.8769     -38.996319     -39.97432      -39.97432       0.97800018   
    360000   1077.6697     -39.174602     -40.1497       -40.1497        0.97509822   
    361000   1085.0217     -39.244722     -40.226472     -40.226472      0.98175046   
    362000   1077.9479     -39.129262     -40.104612     -40.104612      0.97534991   
    363000   1107.7758     -39.051951     -40.05429      -40.05429       1.0023389    
    364000   1108.0739     -39.19964      -40.202248     -40.202248      1.0026086    
    365000   1104.8579     -38.992228     -39.991927     -39.991927      0.99969864   
    366000   1106.1156     -39.177733     -40.17857      -40.17857       1.0008366    
    367000   1094.1072     -39.119944     -40.109915     -40.109915      0.98997122   
    368000   1119.4687     -39.119941     -40.13286      -40.13286       1.0129188    
    369000   1106.151      -39.181249     -40.182118     -40.182118      1.0008687    
    370000   1100.9525     -39.138516     -40.134681     -40.134681      0.99616495   
    371000   1098.4355     -39.061563     -40.05545      -40.05545       0.99388748   
    372000   1112.7736     -39.229963     -40.236824     -40.236824      1.006861     
    373000   1141.7216     -39.046757     -40.079811     -40.079811      1.0330537    
    374000   1100.8194     -39.10742      -40.103464     -40.103464      0.9960445    
    375000   1123.6924     -39.081315     -40.098056     -40.098056      1.0167405    
    376000   1153.2814     -39.193585     -40.237099     -40.237099      1.0435132    
    377000   1112.4629     -39.109945     -40.116524     -40.116524      1.0065798    
    378000   1122.3395     -39.083033     -40.09855      -40.09855       1.0155164    
    379000   1142.0184     -39.052398     -40.085721     -40.085721      1.0333222    
    380000   1157.0304     -39.075667     -40.122572     -40.122572      1.0469054    
    381000   1142.4514     -39.229531     -40.263245     -40.263245      1.0337141    
    382000   1128.0232     -39.115863     -40.136522     -40.136522      1.0206591    
    383000   1187.2719     -39.091765     -40.166034     -40.166034      1.0742686    
    384000   1123.7117     -39.120791     -40.137549     -40.137549      1.016758     
    385000   1155.3006     -39.154417     -40.199757     -40.199757      1.0453403    
    386000   1159.593      -39.103336     -40.15256      -40.15256       1.0492241    
    387000   1167.08       -39.155062     -40.211061     -40.211061      1.0559985    
    388000   1163.2508     -39.164198     -40.216732     -40.216732      1.0525337    
    389000   1157.134      -39.121297     -40.168296     -40.168296      1.0469992    
    390000   1185.2921     -39.11601      -40.188487     -40.188487      1.0724772    
    391000   1161.7591     -39.042964     -40.094148     -40.094148      1.051184     
    392000   1179.788      -39.149192     -40.216689     -40.216689      1.0674969    
    393000   1196.3531     -39.025806     -40.108292     -40.108292      1.0824855    
    394000   1192.6626     -39.169246     -40.248392     -40.248392      1.0791462    
    395000   1168.1665     -39.196243     -40.253225     -40.253225      1.0569816    
    396000   1179.5396     -39.115741     -40.183014     -40.183014      1.0672722    
    397000   1188.4545     -39.081537     -40.156876     -40.156876      1.0753386    
    398000   1195.6712     -39.121217     -40.203085     -40.203085      1.0818684    
    399000   1200.2395     -39.146135     -40.232137     -40.232137      1.0860019    
    400000   1191.0092     -39.199178     -40.276828     -40.276828      1.0776502    
    401000   1209.9294     -39.091737     -40.186506     -40.186506      1.0947695    
    402000   1215.1459     -39.13469      -40.23418      -40.23418       1.0994896    
    403000   1222.5269     -39.116615     -40.222783     -40.222783      1.106168     
    404000   1216.84       -39.157495     -40.258517     -40.258517      1.1010224    
    405000   1219.4873     -39.072403     -40.175821     -40.175821      1.1034178    
    406000   1226.9167     -39.179666     -40.289806     -40.289806      1.11014      
    407000   1218.8237     -39.104405     -40.207222     -40.207222      1.1028173    
    408000   1214.1121     -39.110959     -40.209513     -40.209513      1.0985541    
    409000   1232.6212     -39.096856     -40.212157     -40.212157      1.1153015    
    410000   1220.242      -39.002122     -40.106223     -40.106223      1.1041006    
    411000   1220.9483     -39.065302     -40.170042     -40.170042      1.1047397    
    412000   1240.4462     -39.085508     -40.20789      -40.20789       1.1223818    
    413000   1220.4053     -39.041498     -40.145746     -40.145746      1.1042484    
    414000   1256.2554     -39.027754     -40.16444      -40.16444       1.1366863    
    415000   1252.078      -39.03446      -40.167367     -40.167367      1.1329065    
    416000   1250.2075     -39.07144      -40.202654     -40.202654      1.131214     
    417000   1247.8619     -39.086255     -40.215347     -40.215347      1.1290917    
    418000   1249.8605     -39.112725     -40.243625     -40.243625      1.1309       
    419000   1248.8016     -39.015682     -40.145624     -40.145624      1.1299419    
    420000   1255.1742     -39.037149     -40.172857     -40.172857      1.135708     
    421000   1247.3781     -38.995516     -40.12417      -40.12417       1.1286539    
    422000   1251.956      -38.959981     -40.092777     -40.092777      1.1327961    
    423000   1258.2817     -39.05824      -40.19676      -40.19676       1.1385197    
    424000   1280.7576     -38.923556     -40.082413     -40.082413      1.1588564    
    425000   1286.8918     -39.067047     -40.231453     -40.231453      1.1644068    
    426000   1289.2533     -38.997891     -40.164434     -40.164434      1.1665435    
    427000   1282.1735     -39.03556      -40.195698     -40.195698      1.1601376    
    428000   1281.6236     -39.099604     -40.259244     -40.259244      1.15964      
    429000   1287.8266     -38.928839     -40.094092     -40.094092      1.1652525    
    430000   1283.5103     -39.055644     -40.216991     -40.216991      1.1613471    
    431000   1285.5858     -38.926179     -40.089405     -40.089405      1.1632251    
    432000   1294.0197     -38.993973     -40.164829     -40.164829      1.1708563    
    433000   1290.1122     -38.99163      -40.158951     -40.158951      1.1673206    
    434000   1315.6201     -38.838781     -40.029181     -40.029181      1.1904007    
    435000   1318.5625     -39.004963     -40.198026     -40.198026      1.1930631    
    436000   1339.3242     -38.768829     -39.980678     -39.980678      1.2118487    
    437000   1300.4065     -38.996918     -40.173553     -40.173553      1.1766351    
    438000   1324.2505     -38.863814     -40.062024     -40.062024      1.1982097    
    439000   1325.6857     -38.785587     -39.985095     -39.985095      1.1995083    
    440000   1304.8201     -38.715743     -39.896372     -39.896372      1.1806286    
    441000   1311.4127     -38.690107     -39.876701     -39.876701      1.1865938    
    442000   1330.7938     -38.737936     -39.942066     -39.942066      1.2041302    
    443000   1295.8037     -38.798288     -39.970758     -39.970758      1.1724704    
    444000   1338.2071     -38.801614     -40.012452     -40.012452      1.2108379    
    445000   1293.6938     -38.776353     -39.946915     -39.946915      1.1705613    
    446000   1369.2883     -38.776545     -40.015506     -40.015506      1.2389608    
    447000   1335.1624     -38.905551     -40.113634     -40.113634      1.208083     
    448000   1363.324      -38.912759     -40.146324     -40.146324      1.2335642    
    449000   1320.0161     -38.790207     -39.984585     -39.984585      1.1943783    
    450000   1371.5039     -38.564155     -39.80512      -39.80512       1.2409655    
    451000   1346.4503     -38.96769      -40.185986     -40.185986      1.2182965    
    452000   1354.5915     -38.759674     -39.985337     -39.985337      1.2256629    
    453000   1339.9722     -38.473293     -39.685728     -39.685728      1.212435     
    454000   1403.3905     -38.84129      -40.111107     -40.111107      1.2698172    
    455000   1356.5408     -38.874414     -40.10184      -40.10184       1.2274267    
    456000   1371.4499     -38.413831     -39.654747     -39.654747      1.2409167    
    457000   1371.1146     -38.655904     -39.896518     -39.896518      1.2406133    
    458000   1345.9911     -38.698554     -39.916435     -39.916435      1.2178811    
    459000   1346.1823     -38.783426     -40.00148      -40.00148       1.218054     
    460000   1375.9897     -38.656967     -39.901992     -39.901992      1.2450244    
    461000   1379.6978     -38.636561     -39.88494      -39.88494       1.2483796    
    462000   1342.0889     -38.522695     -39.737045     -39.737045      1.2143502    
    463000   1401.4553     -38.73745      -40.005516     -40.005516      1.2680662    
    464000   1405.8082     -38.745897     -40.017902     -40.017902      1.2720048    
    465000   1386.7971     -38.716583     -39.971386     -39.971386      1.2548031    
    466000   1392.3378     -38.847861     -40.107678     -40.107678      1.2598165    
    467000   1360.5332     -38.550897     -39.781936     -39.781936      1.231039     
    468000   1402.4211     -38.924721     -40.193661     -40.193661      1.2689401    
    469000   1445.7051     -38.533424     -39.841529     -39.841529      1.3081043    
    470000   1428.2598     -38.722942     -40.015262     -40.015262      1.2923195    
    471000   1381.828      -38.816973     -40.06728      -40.06728       1.250307     
    472000   1449.2843     -38.64191      -39.953253     -39.953253      1.3113429    
    473000   1406.5688     -38.800482     -40.073175     -40.073175      1.272693     
    474000   1441.5214     -38.737519     -40.041838     -40.041838      1.3043188    
    475000   1439.7687     -38.479244     -39.781977     -39.781977      1.302733     
    476000   1402.2109     -38.817068     -40.085818     -40.085818      1.2687499    
    477000   1408.4666     -38.680455     -39.954865     -39.954865      1.2744102    
    478000   1404.2866     -38.573757     -39.844385     -39.844385      1.2706281    
    479000   1420.5031     -38.627919     -39.91322      -39.91322       1.285301     
    480000   1471.2539     -38.640056     -39.971277     -39.971277      1.3312214    
    481000   1429.9836     -38.774943     -40.068823     -40.068823      1.2938792    
    482000   1425.9402     -38.721751     -40.011971     -40.011971      1.2902207    
    483000   1434.8941     -38.744738     -40.04306      -40.04306       1.2983223    
    484000   1438.5177     -38.862923     -40.164524     -40.164524      1.301601     
    485000   1452.7878     -38.7439       -40.058412     -40.058412      1.3145129    
    486000   1444.9846     -38.655905     -39.963358     -39.963358      1.3074525    
    487000   1439.2555     -38.741507     -40.043775     -40.043775      1.3022686    
    488000   1445.676      -38.520026     -39.828104     -39.828104      1.3080781    
    489000   1462.0204     -38.534874     -39.857741     -39.857741      1.3228668    
    490000   1467.35       -38.598187     -39.925876     -39.925876      1.3276891    
    491000   1445.9756     -38.568066     -39.876415     -39.876415      1.3083491    
    492000   1495.0073     -38.521595     -39.874309     -39.874309      1.3527141    
    493000   1494.5338     -38.501385     -39.853671     -39.853671      1.3522856    
    494000   1450.4127     -38.723309     -40.035672     -40.035672      1.3123639    
    495000   1490.7954     -38.847632     -40.196535     -40.196535      1.348903     
    496000   1450.8692     -38.583547     -39.896324     -39.896324      1.3127769    
    497000   1503.4977     -38.40904      -39.769436     -39.769436      1.3603963    
    498000   1489.1161     -38.513032     -39.860415     -39.860415      1.3473835    
    499000   1501.8763     -38.610124     -39.969053     -39.969053      1.3589293    
    500000   1498.9329     -38.570485     -39.926751     -39.926751      1.356266     
    501000   1491.374      -38.77736      -40.126787     -40.126787      1.3494265    
    502000   1477.2585     -38.653154     -39.989809     -39.989809      1.3366545    
    503000   1532.503      -38.5221       -39.908741     -39.908741      1.386641     
    504000   1507.8097     -38.680184     -40.044482     -40.044482      1.3642979    
    505000   1479.7615     -38.662359     -40.001278     -40.001278      1.3389193    
    506000   1522.3063     -38.685133     -40.062548     -40.062548      1.3774147    
    507000   1517.0107     -38.71529      -40.087913     -40.087913      1.3726232    
    508000   1536.872      -38.83496      -40.225554     -40.225554      1.3905941    
    509000   1547.9574     -38.544887     -39.945511     -39.945511      1.4006244    
    510000   1520.7803     -38.604312     -39.980346     -39.980346      1.3760339    
    511000   1519.0977     -38.672492     -40.047003     -40.047003      1.3745115    
    512000   1537.2261     -38.744873     -40.135787     -40.135787      1.3909145    
    513000   1547.3437     -38.70026      -40.100329     -40.100329      1.4000691    
    514000   1548.2888     -38.76539      -40.166314     -40.166314      1.4009242    
    515000   1544.3033     -38.601699     -39.999017     -39.999017      1.3973181    
    516000   1541.7819     -38.624726     -40.019763     -40.019763      1.3950366    
    517000   1581.2288     -38.825338     -40.256067     -40.256067      1.430729     
    518000   1539.1963     -38.637675     -40.030373     -40.030373      1.3926972    
    519000   1576.5389     -38.494582     -39.921068     -39.921068      1.4264856    
    520000   1551.4104     -38.595328     -39.999076     -39.999076      1.4037487    
    521000   1556.1984     -38.605517     -40.013598     -40.013598      1.408081     
    522000   1541.2437     -38.833294     -40.227844     -40.227844      1.3945497    
    523000   1581.4529     -38.599989     -40.03092      -40.03092       1.4309318    
    524000   1563.7815     -38.729841     -40.144783     -40.144783      1.4149423    
    525000   1568.1819     -38.608515     -40.027439     -40.027439      1.4189239    
    526000   1578.7447     -38.682002     -40.110484     -40.110484      1.4284813    
    527000   1583.6639     -38.709926     -40.142859     -40.142859      1.4329323    
    528000   1594.076      -38.708082     -40.150436     -40.150436      1.4423535    
    529000   1587.7658     -38.499041     -39.935685     -39.935685      1.4366439    
    530000   1588.6554     -38.650433     -40.087882     -40.087882      1.4374488    
    531000   1615.8084     -38.720941     -40.182958     -40.182958      1.4620174    
    532000   1610.2085     -38.584795     -40.041745     -40.041745      1.4569505    
    533000   1640.9804     -38.644223     -40.129016     -40.129016      1.4847936    
    534000   1604.3269     -38.615408     -40.067037     -40.067037      1.4516287    
    535000   1617.5979     -38.57438      -40.038016     -40.038016      1.4636365    
    536000   1594.8567     -38.623041     -40.066101     -40.066101      1.4430599    
    537000   1635.0502     -38.730713     -40.21014      -40.21014       1.4794278    
    538000   1613.5588     -38.715857     -40.175839     -40.175839      1.4599819    
    539000   1624.2001     -38.717905     -40.187516     -40.187516      1.4696104    
    540000   1625.5981     -38.661875     -40.13275      -40.13275       1.4708754    
    541000   1620.4313     -38.774463     -40.240664     -40.240664      1.4662003    
    542000   1643.4425     -38.652948     -40.13997      -40.13997       1.4870213    
    543000   1618.7394     -38.718419     -40.183089     -40.183089      1.4646695    
    544000   1622.7784     -38.581427     -40.049751     -40.049751      1.468324     
    545000   1608.5302     -38.522933     -39.978365     -39.978365      1.4554319    
    546000   1656.8849     -38.72415      -40.223334     -40.223334      1.4991843    
    547000   1626.0484     -38.662905     -40.134188     -40.134188      1.4712828    
    548000   1661.4261     -38.754853     -40.258146     -40.258146      1.5032933    
    549000   1639.8478     -38.565705     -40.049473     -40.049473      1.4837688    
    550000   1629.967      -38.580741     -40.055569     -40.055569      1.4748284    
    551000   1639.5281     -38.72225      -40.205729     -40.205729      1.4834794    
    552000   1669.4796     -38.634226     -40.144806     -40.144806      1.5105802    
    553000   1664.9579     -38.698613     -40.205102     -40.205102      1.5064889    
    554000   1669.4954     -38.590465     -40.101059     -40.101059      1.5105945    
    555000   1663.4394     -38.679597     -40.184712     -40.184712      1.5051149    
    556000   1652.9903     -38.615467     -40.111128     -40.111128      1.4956604    
    557000   1663.0992     -38.646682     -40.151489     -40.151489      1.5048071    
    558000   1682.0743     -38.534578     -40.056554     -40.056554      1.5219762    
    559000   1685.154      -38.547984     -40.072747     -40.072747      1.5247627    
    560000   1661.2197     -38.620374     -40.12348      -40.12348       1.5031065    
    561000   1667.4278     -38.617968     -40.126691     -40.126691      1.5087237    
    562000   1678.6542     -38.534205     -40.053086     -40.053086      1.5188816    
    563000   1725.967      -38.661793     -40.223484     -40.223484      1.5616912    
    564000   1700.1516     -38.473672     -40.012005     -40.012005      1.5383329    
    565000   1697.252      -38.701506     -40.237216     -40.237216      1.5357093    
    566000   1689.765      -38.616983     -40.145918     -40.145918      1.5289349    
    567000   1672.1384     -38.635596     -40.148582     -40.148582      1.5129859    
    568000   1714.5454     -38.477974     -40.029331     -40.029331      1.5513567    
    569000   1719.3383     -38.512267     -40.06796      -40.06796       1.5556934    
    570000   1718.0268     -38.552548     -40.107055     -40.107055      1.5545068    
    571000   1694.2588     -38.614545     -40.147546     -40.147546      1.5330009    
    572000   1728.378      -38.561133     -40.125005     -40.125005      1.5638728    
    573000   1691.4203     -38.482498     -40.01293      -40.01293       1.5304326    
    574000   1689.8192     -38.56642      -40.095404     -40.095404      1.5289839    
    575000   1731.2933     -38.546936     -40.113447     -40.113447      1.5665106    
    576000   1752.7657     -38.585091     -40.17103      -40.17103       1.5859392    
    577000   1730.193      -38.562202     -40.127717     -40.127717      1.565515     
    578000   1722.9334     -38.632378     -40.191324     -40.191324      1.5589464    
    579000   1746.2242     -38.532404     -40.112425     -40.112425      1.5800203    
    580000   1735.3899     -38.527821     -40.098038     -40.098038      1.5702173    
    581000   1731.7825     -38.615168     -40.182121     -40.182121      1.5669532    
    582000   1721.532      -38.553457     -40.111135     -40.111135      1.5576783    
    583000   1743.0584     -38.555084     -40.13224      -40.13224       1.5771559    
    584000   1774.6138     -38.587168     -40.192876     -40.192876      1.6057078    
    585000   1767.6732     -38.674123     -40.27355      -40.27355       1.5994279    
    586000   1773.6431     -38.558327     -40.163157     -40.163157      1.6048296    
    587000   1771.7608     -38.67049      -40.273617     -40.273617      1.6031264    
    588000   1750.4594     -38.493582     -40.077435     -40.077435      1.5838524    
    589000   1784.957      -38.55208      -40.167147     -40.167147      1.6150666    
    590000   1772.3532     -38.49563      -40.099292     -40.099292      1.6036624    
    591000   1770.3197     -38.632237     -40.23406      -40.23406       1.6018224    
    592000   1776.9503     -38.600655     -40.208477     -40.208477      1.607822     
    593000   1796.6944     -38.444344     -40.07003      -40.07003       1.6256869    
    594000   1782.5486     -38.595808     -40.208696     -40.208696      1.6128875    
    595000   1802.0537     -38.39061      -40.021146     -40.021146      1.6305361    
    596000   1789.2736     -38.477371     -40.096343     -40.096343      1.6189724    
    597000   1795.9569     -38.430981     -40.056        -40.056         1.6250195    
    598000   1811.3012     -38.162724     -39.801628     -39.801628      1.6389034    
    599000   1787.5643     -38.411397     -40.028822     -40.028822      1.6174258    
    600000   1778.0744     -38.376876     -39.985715     -39.985715      1.6088391    
    601000   1788.7229     -38.217654     -39.836128     -39.836128      1.618474     
    602000   1814.461      -38.351266     -39.993029     -39.993029      1.6417624    
    603000   1806.0219     -38.127194     -39.761321     -39.761321      1.6341266    
    604000   1800.5564     -38.342986     -39.972167     -39.972167      1.6291812    
    605000   1804.2161     -38.340205     -39.972697     -39.972697      1.6324927    
    606000   1834.48       -38.418742     -40.078618     -40.078618      1.6598761    
    607000   1858.7873     -38.19777      -39.879639     -39.879639      1.6818698    
    608000   1858.2561     -38.308992     -39.990381     -39.990381      1.6813892    
    609000   1829.0998     -38.02884      -39.683848     -39.683848      1.6550079    
    610000   1884.408      -38.21208      -39.917132     -39.917132      1.705052     
    611000   1806.5028     -38.317538     -39.9521       -39.9521        1.6345617    
    612000   1851.8979     -38.147763     -39.823399     -39.823399      1.6756361    
    613000   1811.5617     -38.315765     -39.954904     -39.954904      1.6391391    
    614000   1820.2343     -38.381546     -40.028532     -40.028532      1.6469863    
    615000   1846.1462     -38.304428     -39.97486      -39.97486       1.6704319    
    616000   1849.2752     -38.142761     -39.816024     -39.816024      1.673263     
    617000   1799.3639     -38.464141     -40.092244     -40.092244      1.6281022    
    618000   1888.0791     -38.301759     -40.010133     -40.010133      1.7083736    
    619000   1853.6129     -38.377107     -40.054295     -40.054295      1.6771879    
    620000   1853.7827     -38.242884     -39.920226     -39.920226      1.6773416    
    621000   1855.2865     -38.334777     -40.013479     -40.013479      1.6787022    
    622000   1876.122      -38.047867     -39.745422     -39.745422      1.6975546    
    623000   1883.3705     -38.156262     -39.860376     -39.860376      1.7041132    
    624000   1876.0398     -38.28591      -39.98339      -39.98339       1.6974803    
    625000   1870.8546     -38.118933     -39.811721     -39.811721      1.6927885    
    626000   1863.3227     -38.291065     -39.977038     -39.977038      1.6859735    
    627000   1870.3163     -38.343889     -40.036191     -40.036191      1.6923015    
    628000   1883.1485     -38.431144     -40.135056     -40.135056      1.7039124    
    629000   1892.9286     -38.324021     -40.036782     -40.036782      1.7127615    
    630000   1904.9046     -38.311189     -40.034787     -40.034787      1.7235977    
    631000   1851.2259     -38.165281     -39.840309     -39.840309      1.6750281    
    632000   1917.0432     -38.339652     -40.074233     -40.074233      1.7345809    
    633000   1872.2499     -38.258398     -39.952449     -39.952449      1.6940511    
    634000   1942.6785     -38.269212     -40.026988     -40.026988      1.7577763    
    635000   1871.6554     -38.25989      -39.953404     -39.953404      1.6935131    
    636000   1874.466      -38.10969      -39.805746     -39.805746      1.6960562    
    637000   1911.9844     -38.226937     -39.95694      -39.95694       1.7300037    
    638000   1946.831      -37.897807     -39.659341     -39.659341      1.7615336    
    639000   1880.03       -38.14207      -39.843161     -39.843161      1.7010906    
    640000   1929.5163     -37.670105     -39.415972     -39.415972      1.7458669    
    641000   1895.4214     -38.02809      -39.743107     -39.743107      1.7150171    
    642000   1870.9462     -37.815582     -39.508453     -39.508453      1.6928715    
    643000   2017.0206     -37.8139       -39.638942     -39.638942      1.8250427    
    644000   1939.4343     -38.257633     -40.012474     -40.012474      1.7548409    
    645000   1902.2301     -38.204891     -39.926069     -39.926069      1.7211777    
    646000   1898.5738     -38.038026     -39.755896     -39.755896      1.7178695    
    647000   1911.978      -38.1941       -39.924098     -39.924098      1.7299979    
    648000   1984.1271     -38.040583     -39.835863     -39.835863      1.7952799    
    649000   1936.0974     -38.346865     -40.098687     -40.098687      1.7518216    
    650000   1923.0322     -38.048723     -39.788723     -39.788723      1.74         
    651000   1930.0876     -38.211291     -39.957674     -39.957674      1.7463838    
    652000   1933.6682     -38.140252     -39.889876     -39.889876      1.7496237    
    653000   1998.5006     -38.246239     -40.054524     -40.054524      1.8082853    
    654000   1964.194      -38.420613     -40.197858     -40.197858      1.777244     
    655000   1969.8655     -38.228091     -40.010466     -40.010466      1.7823757    
    656000   1967.0875     -38.168858     -39.94872      -39.94872       1.7798621    
    657000   2013.003      -38.068415     -39.889822     -39.889822      1.8214074    
    658000   1977.4995     -38.02378      -39.813063     -39.813063      1.7892831    
    659000   1964.3476     -38.212387     -39.98977      -39.98977       1.777383     
    660000   1980.1608     -38.158689     -39.95038      -39.95038       1.7916911    
    661000   1994.1488     -38.272815     -40.077163     -40.077163      1.8043478    
    662000   2003.6812     -38.127683     -39.940656     -39.940656      1.8129729    
    663000   2014.0129     -38.261125     -40.083446     -40.083446      1.8223212    
    664000   1984.8514     -38.044776     -39.840711     -39.840711      1.7959352    
    665000   1975.9983     -38.159391     -39.947316     -39.947316      1.7879248    
    666000   2038.2133     -38.215681     -40.0599       -40.0599        1.8442182    
    667000   1988.968      -38.361946     -40.161606     -40.161606      1.79966      
    668000   2026.3403     -38.205974     -40.039449     -40.039449      1.8334753    
    669000   1994.1974     -38.075165     -39.879556     -39.879556      1.8043917    
    670000   2007.091      -38.033817     -39.849875     -39.849875      1.8160581    
    671000   1941.7577     -37.967208     -39.724151     -39.724151      1.7569432    
    672000   2009.6348     -38.274023     -40.092382     -40.092382      1.8183598    
    673000   2009.0734     -38.037567     -39.855418     -39.855418      1.8178518    
    674000   1973.9844     -38.020047     -39.80615      -39.80615       1.7861026    
    675000   2076.8765     -37.965821     -39.845022     -39.845022      1.8792015    
    676000   2023.2597     -38.177461     -40.008149     -40.008149      1.8306879    
    677000   2021.2311     -38.201934     -40.030787     -40.030787      1.8288524    
    678000   2033.6327     -37.983101     -39.823175     -39.823175      1.8400736    
    679000   1993.8944     -37.695673     -39.49979      -39.49979       1.8041176    
    680000   2026.1657     -37.885447     -39.718765     -39.718765      1.8333173    
    681000   2035.1554     -37.8158       -39.657251     -39.657251      1.8414514    
    682000   2047.2344     -37.882065     -39.734446     -39.734446      1.8523807    
    683000   2058.4753     -38.005663     -39.868215     -39.868215      1.8625517    
    684000   1998.1679     -37.978112     -39.786096     -39.786096      1.8079843    
    685000   2056.7406     -37.703876     -39.564858     -39.564858      1.8609821    
    686000   2033.3779     -37.860533     -39.700376     -39.700376      1.8398431    
    687000   2073.6393     -37.890361     -39.766634     -39.766634      1.8762724    
    688000   2085.2586     -37.933925     -39.82071      -39.82071       1.8867858    
    689000   2048.9999     -38.127153     -39.981131     -39.981131      1.8539782    
    690000   2080.7921     -38.151296     -40.034041     -40.034041      1.8827444    
    691000   2034.9734     -37.912111     -39.753398     -39.753398      1.8412867    
    692000   2043.2675     -37.655187     -39.503978     -39.503978      1.8487913    
    693000   2096.9181     -38.14716      -40.044495     -40.044495      1.8973355    
    694000   2078.5538     -38.261929     -40.142648     -40.142648      1.8807192    
    695000   2143.8222     -37.869269     -39.809044     -39.809044      1.9397753    
    696000   2045.7495     -37.841365     -39.692402     -39.692402      1.8510371    
    697000   2112.7655     -37.830762     -39.742436     -39.742436      1.9116746    
    698000   2125.9032     -37.857225     -39.780787     -39.780787      1.9235619    
    699000   2097.5523     -38.112249     -40.010158     -40.010158      1.8979094    
    700000   2099.9506     -38.045576     -39.945655     -39.945655      1.9000795    
    701000   2137.7894     -38.041703     -39.976019     -39.976019      1.9343168    
    702000   2109.6495     -37.925413     -39.834268     -39.834268      1.9088552    
    703000   2138.3743     -37.736647     -39.671493     -39.671493      1.934846     
    704000   2102.9948     -37.961331     -39.864165     -39.864165      1.9028339    
    705000   2137.092      -38.0555       -39.989186     -39.989186      1.9336858    
    706000   2127.8424     -38.15379      -40.079107     -40.079107      1.9253165    
    707000   2167.4725     -38.129211     -40.090386     -40.090386      1.9611747    
    708000   2153.7117     -37.932181     -39.880904     -39.880904      1.9487236    
    709000   2123.8236     -38.041074     -39.962754     -39.962754      1.9216802    
    710000   2179.6121     -37.946809     -39.918967     -39.918967      1.9721588    
    711000   2156.005      -37.974527     -39.925326     -39.925326      1.9507987    
    712000   2123.2524     -37.996357     -39.91752      -39.91752       1.9211634    
    713000   2176.7935     -37.910915     -39.880523     -39.880523      1.9696085    
    714000   2151.4848     -37.903463     -39.850171     -39.850171      1.9467087    
    715000   2133.3144     -37.972206     -39.902474     -39.902474      1.9302677    
    716000   2165.8198     -37.766043     -39.725723     -39.725723      1.9596793    
    717000   2161.2777     -37.8397       -39.79527      -39.79527       1.9555695    
    718000   2091.9649     -37.435435     -39.328289     -39.328289      1.8928538    
    719000   2155.9545     -37.466142     -39.416895     -39.416895      1.9507529    
    720000   2126.2926     -37.289262     -39.213177     -39.213177      1.9239142    
    721000   2163.4912     -37.695976     -39.653548     -39.653548      1.9575723    
    722000   2146.5469     -37.997129     -39.93937      -39.93937       1.9422407    
    723000   2207.843      -37.602629     -39.600332     -39.600332      1.9977027    
    724000   2258.011      -37.318546     -39.361642     -39.361642      2.0430958    
    725000   2112.1067     -37.708305     -39.619384     -39.619384      1.9110785    
    726000   2230.2832     -37.777088     -39.795096     -39.795096      2.0180071    
    727000   2157.7681     -37.619331     -39.571725     -39.571725      1.9523939    
    728000   2173.5274     -37.667932     -39.634586     -39.634586      1.9666533    
    729000   2219.8391     -38.003399     -40.011956     -40.011956      2.0085571    
    730000   2207.472      -37.689455     -39.686822     -39.686822      1.997367     
    731000   2182.5715     -37.530212     -39.505048     -39.505048      1.9748365    
    732000   2205.8961     -37.765403     -39.761344     -39.761344      1.9959412    
    733000   2182.5929     -37.929273     -39.904129     -39.904129      1.9748559    
    734000   2260.6403     -37.562036     -39.607511     -39.607511      2.0454749    
    735000   2209.1369     -38.018734     -40.017608     -40.017608      1.9988735    
    736000   2191.8804     -37.532019     -39.515279     -39.515279      1.9832594    
    737000   2216.2496     -37.701039     -39.706348     -39.706348      2.0053092    
    738000   2198.2556     -37.641827     -39.630855     -39.630855      1.9890279    
    739000   2225.9503     -37.743583     -39.75767      -39.75767       2.0140866    
    740000   2204.3322     -37.969573     -39.964099     -39.964099      1.9945261    
    741000   2171.1739     -37.899325     -39.863848     -39.863848      1.9645238    
    742000   2173.6894     -37.799449     -39.766249     -39.766249      1.9667998    
    743000   2195.7465     -37.508074     -39.494832     -39.494832      1.9867576    
    744000   2214.5754     -37.922502     -39.926297     -39.926297      2.0037944    
    745000   2244.8681     -37.511786     -39.542989     -39.542989      2.0312038    
    746000   2278.3707     -37.627577     -39.689095     -39.689095      2.0615177    
    747000   2237.1397     -37.731634     -39.755845     -39.755845      2.024211     
    748000   2248.6308     -37.776175     -39.810783     -39.810783      2.0346084    
    749000   2228.176      -37.871065     -39.887165     -39.887165      2.0161004    
    750000   2307.7345     -38.008695     -40.096782     -40.096782      2.0880867    
    751000   2202.5943     -37.835706     -39.82866      -39.82866       1.9929536    
    752000   2237.4965     -37.611722     -39.636256     -39.636256      2.0245338    
    753000   2255.4941     -37.803961     -39.844779     -39.844779      2.0408184    
    754000   2290.7231     -37.768505     -39.841199     -39.841199      2.0726944    
    755000   2218.8594     -37.773256     -39.780927     -39.780927      2.0076707    
    756000   2298.7619     -37.853227     -39.933195     -39.933195      2.0799681    
    757000   2326.0981     -37.760212     -39.864914     -39.864914      2.1047024    
    758000   2294.7012     -37.96467      -40.040964     -40.040964      2.0762939    
    759000   2283.8418     -37.915048     -39.981516     -39.981516      2.066468     
    760000   2261.2419     -37.459629     -39.505648     -39.505648      2.0460192    
    761000   2217.6409     -37.257584     -39.264152     -39.264152      2.0065681    
    762000   2311.4791     -37.555324     -39.646799     -39.646799      2.0914748    
    763000   2252.0192     -37.364641     -39.402315     -39.402315      2.0376743    
    764000   2293.8022     -37.652682     -39.728163     -39.728163      2.0754804    
    765000   2341.0862     -37.481265     -39.599529     -39.599529      2.118264     
    766000   2252.4693     -37.680828     -39.71891      -39.71891       2.0380816    
    767000   2410.2173     -37.407943     -39.588759     -39.588759      2.1808153    
    768000   2295.5452     -37.700499     -39.777557     -39.777557      2.0770575    
    769000   2264.2322     -37.635935     -39.68466      -39.68466       2.0487248    
    770000   2334.8602     -37.541757     -39.654388     -39.654388      2.1126306    
    771000   2244.1599     -37.010911     -39.041474     -39.041474      2.0305631    
    772000   2377.2034     -37.262805     -39.413748     -39.413748      2.1509436    
    773000   2360.1342     -37.548249     -39.683748     -39.683748      2.135499     
    774000   2295.8456     -36.615829     -38.693159     -38.693159      2.0773293    
    775000   2299.5908     -37.51623      -39.596948     -39.596948      2.0807181    
    776000   2347.6823     -37.130323     -39.254555     -39.254555      2.1242322    
    777000   2250.2699     -37.633727     -39.669819     -39.669819      2.0360915    
    778000   2318.9172     -37.281552     -39.379757     -39.379757      2.0982051    
    779000   2335.7437     -37.289507     -39.402937     -39.402937      2.11343      
    780000   2271.2361     -37.510951     -39.566014     -39.566014      2.0550622    
    781000   2324.2055     -37.425017     -39.528007     -39.528007      2.10299      
    782000   2301.8197     -37.69318      -39.775915     -39.775915      2.0827348    
    783000   2350.2741     -37.367048     -39.493625     -39.493625      2.1265774    
    784000   2282.2137     -37.782877     -39.847871     -39.847871      2.0649949    
    785000   2344.8002     -37.757566     -39.87919      -39.87919       2.1216245    
    786000   2298.6764     -37.381473     -39.461363     -39.461363      2.0798907    
    787000   2377.8081     -37.864466     -40.015956     -40.015956      2.1514908    
    788000   2380.2562     -37.702496     -39.856202     -39.856202      2.1537059    
    789000   2286.8415     -37.342852     -39.412034     -39.412034      2.0691822    
    790000   2307.522      -37.708101     -39.795995     -39.795995      2.0878944    
    791000   2379.6281     -37.391701     -39.544839     -39.544839      2.1531376    
    792000   2398.0402     -37.671992     -39.841789     -39.841789      2.1697972    
    793000   2377.2298     -37.756039     -39.907007     -39.907007      2.1509675    
    794000   2345.3519     -37.388878     -39.511002     -39.511002      2.1221237    
    795000   2384.2264     -37.551618     -39.708916     -39.708916      2.1572982    
    796000   2381.6303     -37.574973     -39.729922     -39.729922      2.1549492    
    797000   2462.3758     -37.545457     -39.773467     -39.773467      2.2280094    
    798000   2340.5235     -37.736315     -39.85407      -39.85407       2.1177548    
    799000   2397.043      -37.694306     -39.863201     -39.863201      2.1688949    
    800000   2373.5326     -37.517511     -39.665133     -39.665133      2.1476222    
    801000   2401.2984     -37.595101     -39.767846     -39.767846      2.1727453    
    802000   2419.7649     -37.73224      -39.921694     -39.921694      2.1894541    
    803000   2348.7926     -37.565621     -39.690858     -39.690858      2.1252369    
    804000   2430.4343     -37.381674     -39.580782     -39.580782      2.199108     
    805000   2418.0466     -37.383032     -39.570932     -39.570932      2.1878994    
    806000   2411.6395     -37.457932     -39.640034     -39.640034      2.1821021    
    807000   2428.2035     -37.640819     -39.837909     -39.837909      2.1970895    
    808000   2505.3556     -37.596757     -39.863655     -39.863655      2.2668984    
    809000   2424.5989     -37.848096     -40.041924     -40.041924      2.1938281    
    810000   2423.8922     -37.660487     -39.853676     -39.853676      2.1931886    
    811000   2456.6541     -37.77723      -40.000063     -40.000063      2.2228323    
    812000   2476.4158     -37.419885     -39.660598     -39.660598      2.2407131    
    813000   2434.2995     -37.657338     -39.859943     -39.859943      2.2026053    
    814000   2480.4267     -37.316099     -39.560441     -39.560441      2.2443422    
    815000   2432.4612     -37.490018     -39.69096      -39.69096       2.200942     
    816000   2463.8387     -37.278084     -39.507417     -39.507417      2.229333     
    817000   2458.1897     -37.340141     -39.564363     -39.564363      2.2242217    
    818000   2508.971      -37.322833     -39.593003     -39.593003      2.2701697    
    819000   2430.7712     -37.528921     -39.728334     -39.728334      2.1994128    
    820000   2501.7673     -37.224955     -39.488606     -39.488606      2.2636516    
    821000   2401.5614     -37.242522     -39.415505     -39.415505      2.1729832    
    822000   2513.6961     -37.356379     -39.630825     -39.630825      2.2744451    
    823000   2563.9319     -37.473992     -39.793891     -39.793891      2.3198995    
    824000   2472.9418     -37.310373     -39.547942     -39.547942      2.2375697    
    825000   2388.3741     -37.46728      -39.628332     -39.628332      2.161051     
    826000   2503.4302     -37.199024     -39.464181     -39.464181      2.2651563    
    827000   2342.8282     -37.498039     -39.617879     -39.617879      2.1198402    
    828000   2534.0514     -37.171048     -39.463911     -39.463911      2.292863     
    829000   2482.22       -37.188469     -39.434434     -39.434434      2.2459648    
    830000   2462.4535     -37.160037     -39.388117     -39.388117      2.2280797    
    831000   2499.2115     -37.436725     -39.698064     -39.698064      2.2613391    
    832000   2470.1083     -37.560975     -39.795981     -39.795981      2.2350059    
    833000   2489.0651     -36.526212     -38.77837      -38.77837       2.2521584    
    834000   2514.0304     -37.396142     -39.67089      -39.67089       2.2747476    
    835000   2483.189      -37.303617     -39.550458     -39.550458      2.2468416    
    836000   2558.8229     -37.275399     -39.590676     -39.590676      2.3152767    
    837000   2560.7283     -37.429751     -39.746752     -39.746752      2.3170008    
    838000   2516.8514     -37.151793     -39.429093     -39.429093      2.2773001    
    839000   2607.6794     -37.021399     -39.380882     -39.380882      2.3594831    
    840000   2484.9415     -37.233288     -39.481715     -39.481715      2.2484273    
    841000   2583.3829     -37.063103     -39.400602     -39.400602      2.3374991    
    842000   2504.1842     -37.467734     -39.733573     -39.733573      2.2658385    
    843000   2579.6531     -37.264096     -39.598221     -39.598221      2.3341244    
    844000   2539.1932     -37.810119     -40.107634     -40.107634      2.2975154    
    845000   2503.3413     -37.048697     -39.313773     -39.313773      2.2650759    
    846000   2556.2058     -37.503957     -39.816866     -39.816866      2.3129087    
    847000   2523.9203     -37.463953     -39.747649     -39.747649      2.2836961    
    848000   2526.8615     -37.530567     -39.816924     -39.816924      2.2863574    
    849000   2572.0869     -37.156829     -39.484108     -39.484108      2.3272783    
    850000   2535.4212     -37.40794      -39.702042     -39.702042      2.2941024    
    851000   2586.7997     -36.67127      -39.011861     -39.011861      2.3405907    
    852000   2671.9187     -37.473507     -39.891115     -39.891115      2.4176082    
    853000   2523.961      -37.236584     -39.520317     -39.520317      2.283733     
    854000   2543.8251     -37.220768     -39.522474     -39.522474      2.3017064    
    855000   2529.1266     -37.294191     -39.582597     -39.582597      2.2884069    
    856000   2607.6669     -37.425702     -39.785174     -39.785174      2.3594718    
    857000   2561.5004     -37.129675     -39.447374     -39.447374      2.3176994    
    858000   2514.908      -37.368353     -39.643895     -39.643895      2.2755416    
    859000   2609.1543     -37.196029     -39.556847     -39.556847      2.3608176    
    860000   2496.2076     -37.251741     -39.510362     -39.510362      2.2586211    
    861000   2495.5238     -37.398101     -39.656103     -39.656103      2.2580023    
[...]
   1890000   618.57885     -42.944422     -43.504125     -43.504125      0.55970314   
   1891000   627.30779     -42.974566     -43.542168     -43.542168      0.56760127   
   1892000   636.20631     -42.946328     -43.521981     -43.521981      0.57565283   
   1893000   617.94146     -42.751754     -43.31088      -43.31088       0.55912642   
   1894000   658.39178     -42.88347      -43.479197     -43.479197      0.59572672   
   1895000   604.81617     -42.683932     -43.231182     -43.231182      0.54725038   
   1896000   606.08756     -42.617932     -43.166332     -43.166332      0.54840076   
   1897000   586.28728     -42.840489     -43.370974     -43.370974      0.53048505   
   1898000   574.83453     -42.934486     -43.454609     -43.454609      0.52012236   
   1899000   619.27007     -42.872516     -43.432845     -43.432845      0.56032857   
   1900000   638.59576     -42.671515     -43.24933      -43.24933       0.57781486   
   1901000   621.27149     -43.219604     -43.781743     -43.781743      0.5621395    
   1902000   595.97311     -43.286706     -43.825955     -43.825955      0.53924899   
   1903000   591.49379     -43.287882     -43.823078     -43.823078      0.53519601   
   1904000   585.04797     -43.123492     -43.652856     -43.652856      0.5293637    
   1905000   603.03122     -43.137648     -43.683284     -43.683284      0.54563532   
   1906000   614.45164     -43.069755     -43.625724     -43.625724      0.55596875   
   1907000   559.71369     -43.270594     -43.777034     -43.777034      0.50644071   
   1908000   550.31994     -43.170485     -43.668426     -43.668426      0.49794104   
   1909000   582.24736     -42.964935     -43.491764     -43.491764      0.52682965   
   1910000   577.14812     -43.100605     -43.62282      -43.62282       0.52221574   
   1911000   569.46942     -43.052807     -43.568075     -43.568075      0.5152679    
   1912000   563.3034      -42.899531     -43.40922      -43.40922       0.50968876   
   1913000   584.6173      -42.719905     -43.248879     -43.248879      0.52897402   
   1914000   584.75982     -42.935938     -43.465041     -43.465041      0.52910297   
   1915000   584.71368     -43.108233     -43.637294     -43.637294      0.52906123   
   1916000   561.50138     -43.018105     -43.526163     -43.526163      0.50805825   
   1917000   560.3699      -42.649773     -43.156808     -43.156808      0.50703446   
   1918000   540.25021     -42.950399     -43.439229     -43.439229      0.48882975   
   1919000   544.51408     -43.150205     -43.642893     -43.642893      0.49268779   
   1920000   568.76961     -43.157317     -43.671952     -43.671952      0.5146347    
   1921000   527.2226      -43.248678     -43.725721     -43.725721      0.47704208   
   1922000   534.68645     -43.233972     -43.717768     -43.717768      0.48379553   
   1923000   545.21096     -43.097965     -43.591283     -43.591283      0.49331834   
   1924000   546.44013     -42.976819     -43.471249     -43.471249      0.49443051   
   1925000   494.3409      -43.012676     -43.459966     -43.459966      0.44729004   
   1926000   519.04334     -43.04665      -43.516291     -43.516291      0.46964133   
   1927000   512.33963     -43.308915     -43.772491     -43.772491      0.46357566   
   1928000   503.10485     -43.066245     -43.521465     -43.521465      0.45521984   
   1929000   525.72212     -43.130532     -43.606217     -43.606217      0.47568443   
   1930000   511.6395      -43.193033     -43.655975     -43.655975      0.46294218   
   1931000   504.51443     -43.310658     -43.767153     -43.767153      0.45649526   
   1932000   501.52681     -43.262115     -43.715907     -43.715907      0.453792     
   1933000   466.39567     -42.969338     -43.391342     -43.391342      0.4220046    
   1934000   516.71171     -43.137662     -43.605194     -43.605194      0.46753161   
   1935000   501.52498     -43.172122     -43.625912     -43.625912      0.45379034   
   1936000   485.6216      -43.163641     -43.603042     -43.603042      0.43940063   
   1937000   474.86048     -43.152857     -43.58252      -43.58252       0.42966374   
   1938000   518.14044     -43.230673     -43.699497     -43.699497      0.46882436   
   1939000   487.81682     -43.265092     -43.706479     -43.706479      0.44138691   
   1940000   491.89532     -43.079599     -43.524676     -43.524676      0.44507722   
   1941000   483.71349     -43.157401     -43.595075     -43.595075      0.43767414   
   1942000   480.66775     -43.056572     -43.49149      -43.49149       0.43491828   
   1943000   473.63889     -43.098245     -43.526803     -43.526803      0.42855842   
   1944000   466.27428     -43.178779     -43.600674     -43.600674      0.42189477   
   1945000   460.86153     -43.350514     -43.767511     -43.767511      0.4169972    
   1946000   462.77986     -43.447941     -43.866674     -43.866674      0.41873294   
   1947000   456.5309      -43.266831     -43.67991      -43.67991       0.41307875   
   1948000   431.83327     -43.095888     -43.48662      -43.48662       0.39073181   
   1949000   462.5454      -43.326765     -43.745285     -43.745285      0.4185208    
   1950000   466.81487     -43.318723     -43.741107     -43.741107      0.4223839    
   1951000   443.11116     -43.251987     -43.652923     -43.652923      0.40093629   
   1952000   428.90623     -43.313752     -43.701836     -43.701836      0.38808337   
   1953000   454.71498     -43.129038     -43.540474     -43.540474      0.41143567   
   1954000   443.30417     -43.173962     -43.575073     -43.575073      0.40111093   
   1955000   442.93139     -43.215763     -43.616537     -43.616537      0.40077363   
   1956000   443.67653     -43.285632     -43.68708      -43.68708       0.40144785   
   1957000   410.61689     -43.086493     -43.458027     -43.458027      0.37153479   
   1958000   424.03703     -43.064819     -43.448497     -43.448497      0.38367762   
   1959000   444.21219     -43.152661     -43.554593     -43.554593      0.40193253   
   1960000   422.57246     -43.409814     -43.792167     -43.792167      0.38235244   
   1961000   408.44669     -43.365397     -43.734968     -43.734968      0.36957115   
   1962000   411.4129      -43.329633     -43.701888     -43.701888      0.37225504   
   1963000   398.4333      -43.117241     -43.477752     -43.477752      0.36051082   
   1964000   410.846       -43.275522     -43.647264     -43.647264      0.3717421    
   1965000   407.55        -43.23938      -43.60814      -43.60814       0.36875981   
   1966000   409.6554      -43.394958     -43.765622     -43.765622      0.37066482   
   1967000   384.33272     -43.42061      -43.768362     -43.768362      0.34775233   
   1968000   389.28015     -43.421513     -43.773742     -43.773742      0.35222886   
   1969000   387.50787     -43.368929     -43.719554     -43.719554      0.35062527   
   1970000   382.80807     -43.203747     -43.55012      -43.55012       0.34637279   
   1971000   408.24018     -43.369917     -43.739302     -43.739302      0.36938429   
   1972000   370.39505     -43.374092     -43.709233     -43.709233      0.33514123   
   1973000   382.71281     -43.232368     -43.578655     -43.578655      0.34628659   
   1974000   382.68947     -43.462721     -43.808987     -43.808987      0.34626547   
   1975000   372.85176     -43.258148     -43.595512     -43.595512      0.33736411   
   1976000   385.54795     -43.330432     -43.679284     -43.679284      0.34885189   
   1977000   368.19286     -43.421705     -43.754854     -43.754854      0.33314863   
   1978000   344.20884     -43.437076     -43.748524     -43.748524      0.3114474    
   1979000   330.80992     -43.438725     -43.738049     -43.738049      0.29932377   
   1980000   341.81331     -43.438262     -43.747541     -43.747541      0.30927987   
   1981000   367.079       -43.270517     -43.602658     -43.602658      0.3321408    
   1982000   348.84742     -43.203737     -43.519382     -43.519382      0.31564447   
   1983000   362.42335     -43.433956     -43.761884     -43.761884      0.32792827   
   1984000   346.58006     -43.442308     -43.755901     -43.755901      0.31359292   
   1985000   328.56761     -43.403039     -43.700334     -43.700334      0.29729488   
   1986000   328.84816     -43.443867     -43.741415     -43.741415      0.29754873   
   1987000   336.87226     -43.4821       -43.786909     -43.786909      0.3048091    
   1988000   342.58551     -43.411843     -43.721821     -43.721821      0.30997857   
   1989000   353.12763     -43.445713     -43.76523      -43.76523       0.3195173    
   1990000   343.71551     -43.328123     -43.639124     -43.639124      0.31100102   
   1991000   332.74147     -43.400308     -43.701379     -43.701379      0.30107148   
   1992000   317.99675     -43.4174       -43.70513      -43.70513       0.28773014   
   1993000   318.43119     -43.40552      -43.693644     -43.693644      0.28812323   
   1994000   309.21485     -43.433112     -43.712896     -43.712896      0.27978409   
   1995000   297.82892     -43.575297     -43.844779     -43.844779      0.26948187   
   1996000   306.60352     -43.578247     -43.855669     -43.855669      0.2774213    
   1997000   322.49181     -43.448828     -43.740626     -43.740626      0.29179737   
   1998000   302.09945     -43.541727     -43.815073     -43.815073      0.27334593   
   1999000   292.74523     -43.543703     -43.808585     -43.808585      0.26488204   
   2000000   295.2758      -43.481551     -43.748722     -43.748722      0.26717175   
   2001000   308.19038     -43.401119     -43.679976     -43.679976      0.27885713   
   2002000   297.41452     -43.554369     -43.823476     -43.823476      0.2691069    
   2003000   290.40549     -43.574565     -43.83733      -43.83733       0.26276499   
   2004000   293.99495     -43.490284     -43.756297     -43.756297      0.26601281   
   2005000   288.45684     -43.509859     -43.770861     -43.770861      0.26100181   
   2006000   283.86078     -43.644682     -43.901525     -43.901525      0.2568432    
   2007000   282.89145     -43.603563     -43.859529     -43.859529      0.25596613   
   2008000   287.75283     -43.583884     -43.844249     -43.844249      0.2603648    
   2009000   275.99257     -43.599124     -43.848848     -43.848848      0.24972388   
   2010000   274.35495     -43.543662     -43.791904     -43.791904      0.24824212   
   2011000   267.77357     -43.596658     -43.838945     -43.838945      0.24228715   
   2012000   260.34436     -43.613167     -43.848732     -43.848732      0.23556505   
   2013000   259.2658      -43.503162     -43.737751     -43.737751      0.23458914   
   2014000   256.16619     -43.561274     -43.793058     -43.793058      0.23178455   
   2015000   252.95215     -43.590295     -43.819171     -43.819171      0.22887642   
   2016000   247.30974     -43.607228     -43.830999     -43.830999      0.22377105   
   2017000   246.925       -43.52213      -43.745553     -43.745553      0.22342293   
   2018000   251.87732     -43.543764     -43.771668     -43.771668      0.22790389   
   2019000   241.98074     -43.633131     -43.85208      -43.85208       0.21894926   
   2020000   236.67898     -43.609237     -43.823389     -43.823389      0.21415211   
   2021000   236.05649     -43.662485     -43.876074     -43.876074      0.21358888   
   2022000   239.19995     -43.603248     -43.819681     -43.819681      0.21643314   
   2023000   232.10564     -43.63455      -43.844564     -43.844564      0.21001406   
   2024000   228.23574     -43.631045     -43.837558     -43.837558      0.20651249   
   2025000   222.76359     -43.557649     -43.75921      -43.75921       0.20156118   
   2026000   223.39738     -43.585317     -43.787452     -43.787452      0.20213464   
   2027000   215.45278     -43.634227     -43.829173     -43.829173      0.19494621   
   2028000   211.49201     -43.585317     -43.77668      -43.77668       0.19136241   
   2029000   217.63205     -43.623969     -43.820887     -43.820887      0.19691806   
   2030000   215.32566     -43.653417     -43.848248     -43.848248      0.19483118   
   2031000   204.88423     -43.668141     -43.853524     -43.853524      0.18538356   
   2032000   203.28327     -43.663792     -43.847727     -43.847727      0.18393497   
   2033000   201.60935     -43.671865     -43.854286     -43.854286      0.18242038   
   2034000   197.26883     -43.622275     -43.800768     -43.800768      0.17849298   
   2035000   196.46755     -43.639827     -43.817595     -43.817595      0.17776797   
   2036000   191.45928     -43.651356     -43.824592     -43.824592      0.17323638   
   2037000   195.1432      -43.700264     -43.876833     -43.876833      0.17656967   
   2038000   191.30848     -43.700575     -43.873675     -43.873675      0.17309994   
   2039000   185.89001     -43.68519      -43.853387     -43.853387      0.16819718   
   2040000   183.46259     -43.661081     -43.827082     -43.827082      0.16600081   
   2041000   179.84834     -43.701964     -43.864695     -43.864695      0.16273056   
   2042000   170.79726     -43.687473     -43.842014     -43.842014      0.15454095   
   2043000   173.8116      -43.714796     -43.872064     -43.872064      0.15726839   
   2044000   169.49596     -43.703529     -43.856892     -43.856892      0.15336351   
   2045000   168.52615     -43.665241     -43.817727     -43.817727      0.152486     
   2046000   163.05944     -43.692818     -43.840358     -43.840358      0.14753961   
   2047000   162.19248     -43.7226       -43.869355     -43.869355      0.14675517   
   2048000   161.40575     -43.696758     -43.842801     -43.842801      0.14604332   
   2049000   158.57726     -43.710853     -43.854337     -43.854337      0.14348404   
   2050000   154.32885     -43.762844     -43.902484     -43.902484      0.13963999   
   2051000   146.37017     -43.853524     -43.985962     -43.985962      0.1324388    
   2052000   150.12114     -43.849133     -43.984965     -43.984965      0.13583276   
   2053000   142.90942     -43.866694     -43.996001     -43.996001      0.12930744   
   2054000   142.75651     -43.78336      -43.912529     -43.912529      0.12916909   
   2055000   141.66832     -43.82369      -43.951874     -43.951874      0.12818447   
   2056000   130.96168     -43.8385       -43.956997     -43.956997      0.11849688   
   2057000   129.68885     -43.832169     -43.949515     -43.949515      0.1173452    
   2058000   119.86288     -43.831863     -43.940317     -43.940317      0.10845445   
   2059000   122.42384     -43.834592     -43.945364     -43.945364      0.11077166   
   2060000   116.79014     -43.880328     -43.986002     -43.986002      0.10567417   
   2061000   114.5229      -43.833164     -43.936787     -43.936787      0.10362272   
   2062000   115.62634     -43.876873     -43.981494     -43.981494      0.10462114   
   2063000   110.03827     -43.869861     -43.969426     -43.969426      0.099564937  
   2064000   108.56243     -43.877491     -43.975721     -43.975721      0.098229572  
   2065000   103.7081      -43.894586     -43.988424     -43.988424      0.093837267  
   2066000   102.09242     -43.891307     -43.983682     -43.983682      0.092375367  
   2067000   99.349583     -43.905137     -43.99503      -43.99503       0.089893591  
   2068000   97.289963     -43.918801     -44.006831     -44.006831      0.088030003  
   2069000   94.14217      -43.917993     -44.003175     -44.003175      0.085181813  
   2070000   90.748659     -43.919043     -44.001154     -44.001154      0.082111294  
   2071000   87.877269     -43.934122     -44.013635     -44.013635      0.0795132    
   2072000   85.42182      -43.938238     -44.015529     -44.015529      0.077291458  
   2073000   80.735857     -43.95202      -44.025071     -44.025071      0.0730515    
   2074000   77.387509     -43.949054     -44.019076     -44.019076      0.070021844  
   2075000   75.215602     -43.955361     -44.023418     -44.023418      0.068056657  
   2076000   72.003611     -43.959577     -44.024727     -44.024727      0.06515038   
   2077000   70.110526     -43.963129     -44.026567     -44.026567      0.063437477  
   2078000   66.037218     -43.970198     -44.02995      -44.02995       0.059751862  
   2079000   62.682274     -43.971084     -44.027801     -44.027801      0.056716239  
   2080000   60.051184     -43.977752     -44.032088     -44.032088      0.054335574  
   2081000   56.755295     -43.98238      -44.033733     -44.033733      0.051353383  
   2082000   54.379217     -43.984983     -44.034186     -44.034186      0.049203459  
   2083000   50.858065     -43.993266     -44.039283     -44.039283      0.046017446  
   2084000   48.147498     -43.99776      -44.041325     -44.041325      0.043564868  
   2085000   45.53028      -44.003377     -44.044574     -44.044574      0.041196754  
   2086000   42.025081     -44.008836     -44.046861     -44.046861      0.038025176  
   2087000   39.462526     -44.014964     -44.05067      -44.05067       0.035706523  
   2088000   36.078165     -44.022175     -44.054819     -44.054819      0.032644282  
   2089000   33.167922     -44.025332     -44.055344     -44.055344      0.030011033  
   2090000   30.481339     -44.032401     -44.059981     -44.059981      0.027580156  
   2091000   27.122822     -44.038443     -44.062984     -44.062984      0.0245413    
   2092000   24.495772     -44.042801     -44.064965     -44.064965      0.02216429   
   2093000   21.315703     -44.049658     -44.068945     -44.068945      0.019286896  
   2094000   18.295638     -44.053554     -44.070108     -44.070108      0.016554278  
   2095000   15.444396     -44.060066     -44.074041     -44.074041      0.013974414  
   2096000   12.196382     -44.065152     -44.076188     -44.076188      0.011035543  
   2097000   9.2772017     -44.070394     -44.078788     -44.078788      0.0083942071 
   2098000   6.2425902     -44.076226     -44.081875     -44.081875      0.0056484268 
   2099000   3.2436441     -44.081361     -44.084296     -44.084296      0.0029349174 
   2100000   0.22882476    -44.086692     -44.086899     -44.086899      0.00020704545
   2100060   0.039293695   -44.086959     -44.086995     -44.086995      3.5553761e-05
Loop time of 8.63123 on 1 procs for 1000000 steps with 8 atoms

Performance: 1001.017 ns/day, 0.024 hours/ns, 115858.401 timesteps/s, 926.867 katom-step/s
98.2% CPU use with 1 MPI tasks x 1 OpenMP threads

MPI task timing breakdown:
Section |  min time  |  avg time  |  max time  |%varavg| %total
---------------------------------------------------------------
Pair    | 6.8842     | 6.8842     | 6.8842     |   0.0 | 79.76
Neigh   | 0.18446    | 0.18446    | 0.18446    |   0.0 |  2.14
Comm    | 0.2105     | 0.2105     | 0.2105     |   0.0 |  2.44
Output  | 0.18367    | 0.18367    | 0.18367    |   0.0 |  2.13
Modify  | 0.93713    | 0.93713    | 0.93713    |   0.0 | 10.86
Other   |            | 0.2313     |            |       |  2.68

Nlocal:              8 ave           8 max           8 min
Histogram: 1 0 0 0 0 0 0 0 0 0
Nghost:             18 ave          18 max          18 min
Histogram: 1 0 0 0 0 0 0 0 0 0
Neighs:              0 ave           0 max           0 min
Histogram: 1 0 0 0 0 0 0 0 0 0
FullNghs:           56 ave          56 max          56 min
Histogram: 1 0 0 0 0 0 0 0 0 0

Total # of neighbors = 56
Ave neighs/atom = 7
Neighbor list builds = 14880
Dangerous builds = 0
write_restart 	./endconf/endconf*3.restart
System init for write_restart ...

Total wall time: 0:00:17
