LAMMPS (7 Feb 2024 - Update 1)
OMP_NUM_THREADS environment is not set. Defaulting to 1 thread. (src/comm.cpp:98)
  using 1 OpenMP thread(s) per MPI task
#============Initialization=================
units 			metal
atom_style 		atomic
boundary 		p p p


#=========Simulation box definition=========
region 			bigbox block 0 100 0 100 0 100
create_box 		1 bigbox
Created orthogonal box = (0 0 0) to (100 100 100)
  1 by 1 by 1 MPI processor grid

#==================Atoms====================
create_atoms 	1 random 10 12345 bigbox
Created 10 atoms
  using lattice units in orthogonal box = (0 0 0) to (100 100 100)
  create_atoms CPU = 0.000 seconds
labelmap 		atom 1 C
mass 			C 12.01

#==========Velocity initialization==========
velocity 		all create 300.0 12345 rot yes dist gaussian

#======Pair style for atom interactions=============
pair_style 		airebo 2.5 1 0
pair_coeff 		* * ./potentials/CH.airebo C C
ERROR: Incorrect args for pair coefficients (src/MANYBODY/pair_airebo.cpp:178)
Last command: pair_coeff 		* * ./potentials/CH.airebo C C
