LAMMPS (29 Sep 2021 - Update 2)
OMP_NUM_THREADS environment is not set. Defaulting to 1 thread. (src/comm.cpp:98)
  using 1 OpenMP thread(s) per MPI task
#============Initialization=================
units 			metal
atom_style 		atomic
boundary 		p p p

############################################
#              CLI Variables               #
############################################
variable 		seed index 200093          #
variable 		N index 8                  #
variable 		iter index 1000000         #
variable 		iterther index 100000      #
variable 		iexport index 1000         #
variable 		tempchauf index 3000       #
variable 		Tdamp index 0.001          #
variable 		timestep index 0.0001      #
variable 		box_size index 10		   #
############################################
############################################

#=========Simulation box definition=========
lattice 		sc 1.0
Lattice spacing in x,y,z = 1.0000000 1.0000000 1.0000000
region 			bigbox block 0 ${box_size} 0 ${box_size} 0 ${box_size}
region 			bigbox block 0 10 0 ${box_size} 0 ${box_size}
region 			bigbox block 0 10 0 10 0 ${box_size}
region 			bigbox block 0 10 0 10 0 10
create_box 		1 bigbox
Created orthogonal box = (0.0000000 0.0000000 0.0000000) to (10.000000 10.000000 10.000000)
  1 by 1 by 1 MPI processor grid

#==================Atoms====================
region 			safezone block 6 9 6 9 6 9 units box
create_atoms 	1 random ${N} ${seed} safezone
create_atoms 	1 random 8 ${seed} safezone
create_atoms 	1 random 8 200093 safezone
Created 8 atoms
  using lattice units in orthogonal box = (0.0000000 0.0000000 0.0000000) to (10.000000 10.000000 10.000000)
  create_atoms CPU = 0.001 seconds
#labelmap 		atom 1 C
mass 			* 12.01



#==========Velocity initialization==========
velocity 		all create 0.0000001 1563967 rot yes dist gaussian

#======Pair style for atom interactions=============
pair_style 		airebo 1.8 1 1
pair_coeff 		* * CH.airebo C
Reading airebo potential file CH.airebo with DATE: 2011-10-25

#==============Neighbor selection===================
neighbor 		0.3 bin
neigh_modify 	every 1 delay 0 check yes


#=====================Timestep======================
timestep 		${timestep}
timestep 		0.0001

#===============Define dump command=================
dump 			1 all cfg 100000 ./dump/dump.tensile_*.cfg mass type xs ys zs vx vy vz id

#========System temperature printing info===========
thermo_style 	custom step temp etotal epair pe ke
thermo 			${iexport}
thermo 			1000



#====================CRC Cycle======================

#=============Condensation et chauffe===============
fix 			1 all nve
fix 			2 all temp/berendsen 0.0 ${tempchauf} ${Tdamp}
fix 			2 all temp/berendsen 0.0 3000 ${Tdamp}
fix 			2 all temp/berendsen 0.0 3000 0.001
fix             3 all momentum 1 linear 1 1 1 angular rescale

run 			${iter}
run 			1000000
Neighbor list info ...
  update every 1 steps, delay 0 steps, check yes
  max neighbors/atom: 2000, page size: 100000
  master list distance cutoff = 8.116371
  ghost atom cutoff = 8.116371
  binsize = 4.0581855, bins = 3 3 3
  1 neighbor lists, perpetual/occasional/extra = 1 0 0
  (1) pair airebo, perpetual
      attributes: full, newton on, ghost
      pair build: full/bin/ghost
      stencil: full/ghost/bin/3d
      bin: standard
Per MPI rank memory allocation (min/avg/max) = 5.129 | 5.129 | 5.129 Mbytes
Step Temp TotEng E_pair PotEng KinEng 
       0        1e-07    1296.7082    1296.7082    1296.7082 9.0482101e-11 
    1000    28.313374   -31.567233   -31.592851   -31.592851  0.025618536 
    2000    13.485722    -33.40158   -33.413782   -33.413782  0.012202164 
    3000    12.005979   -33.843586    -33.85445    -33.85445  0.010863262 
    4000    14.523917   -34.160501   -34.173642   -34.173642  0.013141545 
    5000    14.262909   -34.211672   -34.224577   -34.224577   0.01290538 
    6000    17.633052   -34.211209   -34.227163   -34.227163  0.015954756 
    7000    21.513138    -34.20022   -34.219685   -34.219685   0.01946554 
    8000    80.585695   -38.853543   -38.926458   -38.926458  0.072915631 
    9000    31.701328   -39.963122   -39.991806   -39.991806  0.028684028 
   10000     32.08749   -40.289439   -40.318472   -40.318472  0.029033436 
   11000    33.125634   -40.308442   -40.338415   -40.338415   0.02997277 
   12000    36.738763   -40.335584   -40.368826   -40.368826  0.033242005 
   13000    38.596251   -40.328958    -40.36388    -40.36388  0.034922699 
   14000    41.818956    -40.30373   -40.341569   -40.341569   0.03783867 
   15000    44.873572    -40.29251   -40.333113   -40.333113  0.040602551 
   16000    47.045905   -40.275402    -40.31797    -40.31797  0.042568124 
   17000    52.255708   -40.293394   -40.340676   -40.340676  0.047282062 
   18000    53.246977   -40.297116   -40.345295   -40.345295  0.048178984 
   19000    58.320023   -40.306019   -40.358788   -40.358788  0.052769182 
   20000    61.439136   -40.293051   -40.348642   -40.348642  0.055591422 
   21000    63.737046   -40.293905   -40.351576   -40.351576  0.057670619 
   22000    70.505553   -40.313129   -40.376924   -40.376924  0.063794906 
   23000    69.430499   -40.269511   -40.332333   -40.332333  0.062822175 
   24000    72.177734   -40.260765   -40.326073   -40.326073  0.065307931 
   25000     76.59772   -40.282735   -40.352042   -40.352042  0.069307226 
   26000    77.135206   -40.244521   -40.314315   -40.314315  0.069793555 
   27000    81.104004   -40.270884   -40.344269   -40.344269  0.073384608 
   28000    81.426794   -40.277727   -40.351403   -40.351403  0.073676675 
   29000    85.076654   -40.257048   -40.334027   -40.334027  0.076979144 
   30000    90.257586   -40.286137   -40.367804   -40.367804  0.081666961 
   31000    90.714143   -40.255069   -40.337149   -40.337149  0.082080063 
   32000     95.58843   -40.269177   -40.355667   -40.355667   0.08649042 
   33000     96.10624   -40.258798   -40.345757   -40.345757  0.086958945 
   34000    101.20626   -40.257072   -40.348645   -40.348645   0.09157355 
   35000    105.53985   -40.260891   -40.356385   -40.356385   0.09549467 
   36000    106.81742   -40.248667   -40.345318   -40.345318  0.096650646 
   37000    111.05623   -40.267991   -40.368477   -40.368477   0.10048601 
   38000    112.30191   -40.234569   -40.336182   -40.336182   0.10161313 
   39000     116.9079   -40.257923   -40.363704   -40.363704   0.10578073 
   40000    119.63061   -40.247036    -40.35528    -40.35528   0.10824429 
   41000    121.75127   -40.254822   -40.364985   -40.364985   0.11016311 
   42000    128.42705   -40.223387   -40.339591   -40.339591    0.1162035 
   43000    128.95334   -40.246774   -40.363454   -40.363454   0.11667969 
   44000    130.85618    -40.23198   -40.350382   -40.350382   0.11840143 
   45000    135.24757   -40.229039   -40.351414   -40.351414   0.12237485 
   46000    138.54492    -40.23916   -40.364518   -40.364518   0.12535835 
   47000    141.90311   -40.225698   -40.354095   -40.354095   0.12839692 
   48000    143.87546   -40.238878    -40.36906    -40.36906   0.13018154 
   49000    147.76766   -40.214217    -40.34792    -40.34792   0.13370329 
   50000    149.36081   -40.231968   -40.367113   -40.367113    0.1351448 
   51000    154.08822   -40.233735   -40.373158   -40.373158   0.13942226 
   52000    156.49813   -40.212954   -40.354557   -40.354557   0.14160279 
   53000    158.48177   -40.234207   -40.377604   -40.377604   0.14339764 
   54000    162.67368   -40.219165   -40.366356   -40.366356   0.14719056 
   55000    164.78155   -40.208343   -40.357441   -40.357441   0.14909781 
   56000    168.38948   -40.219943   -40.372305   -40.372305   0.15236234 
   57000    170.51492    -40.20523   -40.359515   -40.359515   0.15428549 
   58000    171.61171   -40.199634   -40.354912   -40.354912   0.15527788 
   59000    178.24026   -40.211496   -40.372772   -40.372772   0.16127554 
   60000    180.33539   -40.194729     -40.3579     -40.3579   0.16317125 
   61000    181.25637   -40.193948   -40.357953   -40.357953   0.16400457 
   62000    184.43377   -40.202985   -40.369865   -40.369865   0.16687955 
   63000    189.83251   -40.169538   -40.341302   -40.341302   0.17176444 
   64000    191.49649   -40.182875   -40.356145   -40.356145   0.17327005 
   65000    196.19329   -40.182562   -40.360082   -40.360082   0.17751982 
   66000    199.47941   -40.167113   -40.347606   -40.347606   0.18049316 
   67000    198.27659   -40.157458   -40.336863   -40.336863   0.17940482 
   68000    203.91286    -40.16693   -40.351435   -40.351435   0.18450464 
   69000    208.02695   -40.163188   -40.351415   -40.351415   0.18822716 
   70000    209.64751   -40.139945   -40.329639   -40.329639   0.18969347 
   71000    211.99242   -40.155329   -40.347144   -40.347144   0.19181519 
   72000    215.75605   -40.128778   -40.323998   -40.323998   0.19522061 
   73000    218.20394   -40.117203   -40.314638   -40.314638   0.19743551 
   74000     220.9019   -40.132769   -40.332646   -40.332646   0.19987668 
   75000    232.52505   -40.139851   -40.350244   -40.350244   0.21039355 
   76000    227.23439   -40.124312   -40.329918   -40.329918   0.20560645 
   77000    231.26321   -40.126062   -40.335313   -40.335313   0.20925181 
   78000    235.87299   -40.131347    -40.34477    -40.34477   0.21342284 
   79000    235.46423   -40.107283   -40.320336   -40.320336   0.21305299 
   80000    239.87059   -40.120568   -40.337607   -40.337607   0.21703995 
   81000    240.13948    -40.13385   -40.351133   -40.351133   0.21728325 
   82000    248.20141   -40.117002   -40.341579   -40.341579   0.22457785 
   83000     252.4852    -40.09593   -40.324384   -40.324384   0.22845392 
   84000    253.05993   -40.122535   -40.351509   -40.351509   0.22897395 
   85000    255.56196   -40.096678   -40.327916   -40.327916   0.23123784 
   86000    265.60934   -40.093263   -40.333592   -40.333592   0.24032892 
   87000    259.75811   -40.098498   -40.333532   -40.333532    0.2350346 
   88000     265.0068   -40.087472   -40.327256   -40.327256   0.23978372 
   89000    270.60486    -40.10712   -40.351969   -40.351969   0.24484897 
   90000    275.64767   -40.086686   -40.336098   -40.336098   0.24941181 
   91000    273.40764   -40.082848   -40.330233   -40.330233   0.24738498 
   92000    277.00435   -40.075576   -40.326215   -40.326215   0.25063935 
   93000    281.10699   -40.074981   -40.329333   -40.329333   0.25435151 
   94000     285.0146   -40.087332   -40.345219   -40.345219    0.2578872 
   95000     295.6476   -40.077746   -40.345254   -40.345254   0.26750816 
   96000    286.47573   -40.062044   -40.321253   -40.321253   0.25920926 
   97000    290.63764   -40.075563   -40.338538   -40.338538   0.26297505 
   98000    295.15552   -40.086127    -40.35319    -40.35319   0.26706292 
   99000    295.77584   -40.081662   -40.349286   -40.349286   0.26762419 
  100000    302.70339   -40.093893   -40.367785   -40.367785   0.27389239 
  101000    302.23091   -40.075233   -40.348698   -40.348698   0.27346488 
  102000    309.16638   -40.045423   -40.325164   -40.325164   0.27974024 
  103000    310.77087   -40.064629   -40.345821   -40.345821   0.28119202 
  104000    311.83648   -40.063941   -40.346097   -40.346097    0.2821562 
  105000    312.82755    -40.07618   -40.359233   -40.359233   0.28305294 
  106000    318.74571   -40.077421   -40.365829   -40.365829   0.28840782 
  107000    321.63871   -40.059176   -40.350201   -40.350201   0.29102546 
  108000    325.34989   -40.061249   -40.355632   -40.355632   0.29438342 
  109000    327.75507   -40.045946   -40.342506   -40.342506   0.29655968 
  110000    332.59713    -40.04983   -40.350771   -40.350771   0.30094088 
  111000    331.84231   -40.045453   -40.345711   -40.345711   0.30025789 
  112000    336.91069   -40.036381   -40.341225   -40.341225   0.30484387 
  113000    337.51844   -40.032769   -40.338163   -40.338163   0.30539378 
  114000    339.59899   -40.034816   -40.342093   -40.342093    0.3072763 
  115000    344.03636   -40.048923   -40.360214   -40.360214   0.31129133 
  116000    347.50288    -40.04746   -40.361888   -40.361888   0.31442791 
  117000    348.83385   -40.042915   -40.358547   -40.358547    0.3156322 
  118000    356.14376   -40.047203   -40.369449   -40.369449   0.32224636 
  119000      357.008   -40.038308   -40.361336   -40.361336   0.32302834 
  120000    357.83354   -40.019975    -40.34375    -40.34375   0.32377531 
  121000    361.41653   -40.037297   -40.364315   -40.364315   0.32701727 
  122000    364.85299   -39.998668   -40.328795   -40.328795   0.33012665 
  123000     370.6487   -40.007703   -40.343074   -40.343074   0.33537073 
  124000    374.42427   -39.987063    -40.32585    -40.32585   0.33878694 
  125000    373.43228   -39.998871    -40.33676    -40.33676   0.33788937 
  126000    381.44972   -39.995411   -40.340555   -40.340555   0.34514373 
  127000    381.82052   -40.004017   -40.349496   -40.349496   0.34547923 
  128000    382.85001   -39.987348   -40.333759   -40.333759   0.34641074 
  129000    383.79196   -39.993646    -40.34091    -40.34091   0.34726303 
  130000    387.66606   -39.970094   -40.320862   -40.320862    0.3507684 
  131000    388.98489   -39.986094   -40.338056   -40.338056   0.35196171 
  132000    396.94997   -39.973326   -40.332495   -40.332495   0.35916867 
  133000    394.13496   -39.967165   -40.323786   -40.323786    0.3566216 
  134000    406.36005   -39.973108   -40.340791   -40.340791   0.36768311 
  135000    403.03984    -39.97356   -40.338239   -40.338239   0.36467892 
  136000    408.49029    -39.97994   -40.349551   -40.349551    0.3696106 
  137000    411.36735   -39.952572   -40.324785   -40.324785   0.37221382 
  138000    414.77439   -39.957923    -40.33322    -40.33322   0.37529658 
  139000    413.93412   -39.957843   -40.332379   -40.332379   0.37453629 
  140000    417.97785   -39.969825    -40.34802    -40.34802   0.37819514 
  141000    418.63865   -39.957686   -40.336479   -40.336479   0.37879305 
  142000    424.93712   -39.950913   -40.335405   -40.335405   0.38449204 
  143000    427.47659   -39.924884   -40.311674   -40.311674    0.3867898 
  144000    429.43846   -39.934343   -40.322908   -40.322908   0.38856494 
  145000    435.35115    -39.91984   -40.313755   -40.313755   0.39391487 
  146000    437.02104   -39.938427   -40.333853   -40.333853   0.39542582 
  147000    441.55278   -39.918643   -40.318169   -40.318169   0.39952623 
  148000    445.78187   -39.944859   -40.348212   -40.348212   0.40335281 
  149000    441.96436   -39.919406   -40.319305   -40.319305   0.39989864 
  150000    458.17617   -39.905273    -40.31984    -40.31984   0.41456742 
  151000    446.39842   -39.915252   -40.319163   -40.319163   0.40391067 
  152000    452.15928   -39.899893   -40.309017   -40.309017   0.40912322 
  153000    460.35261   -39.895254   -40.311791   -40.311791   0.41653672 
  154000    460.78341    -39.88381   -40.300736   -40.300736   0.41692651 
  155000    464.12435   -39.909093   -40.329042   -40.329042   0.41994947 
  156000    477.72955   -39.887929   -40.320189   -40.320189   0.43225974 
  157000    475.87948   -39.891093   -40.321678   -40.321678   0.43058575 
  158000    479.14221   -39.877263   -40.310801   -40.310801   0.43353794 
  159000    483.31833   -39.891769   -40.329086   -40.329086   0.43731658 
  160000    483.51131   -39.879705   -40.317197   -40.317197    0.4374912 
  161000    490.30638   -39.896328   -40.339967   -40.339967   0.44363952 
  162000     487.7995   -39.887096   -40.328468   -40.328468   0.44137124 
  163000    494.17534   -39.907555   -40.354696   -40.354696   0.44714024 
  164000    491.74406   -39.913334   -40.358274   -40.358274   0.44494036 
  165000    495.34789    -39.88195   -40.330151   -40.330151   0.44820118 
  166000    499.68016    -39.90294   -40.355061   -40.355061   0.45212111 
  167000    498.75038   -39.870445   -40.321725   -40.321725   0.45127983 
  168000    503.67176    -39.87957   -40.335303   -40.335303   0.45573279 
  169000    507.10753    -39.85675   -40.315592   -40.315592   0.45884155 
  170000    509.51996   -39.854753   -40.315778   -40.315778   0.46102437 
  171000    515.32192   -39.853225     -40.3195     -40.3195    0.4662741 
  172000    517.79489   -39.879752   -40.348264   -40.348264    0.4685117 
  173000    519.05196   -39.875709   -40.345358   -40.345358   0.46964913 
  174000    518.66087   -39.866516   -40.335811   -40.335811   0.46929525 
  175000    524.40107   -39.857371    -40.33186    -40.33186   0.47448911 
  176000    529.90624   -39.851687   -40.331157   -40.331157    0.4794703 
  177000    532.41113   -39.812417   -40.294154   -40.294154   0.48173677 
  178000    534.48292    -39.85206   -40.335672   -40.335672   0.48361138 
  179000    535.19879   -39.840718   -40.324977   -40.324977   0.48425911 
  180000    537.05338   -39.837004   -40.322941   -40.322941   0.48593719 
  181000    541.81188   -39.835487   -40.325729   -40.325729   0.49024277 
  182000    549.21877   -39.847612   -40.344556   -40.344556   0.49694469 
  183000    549.91059   -39.848033   -40.345603   -40.345603   0.49757066 
  184000     551.5042   -39.814679   -40.313691   -40.313691   0.49901259 
  185000    555.83725   -39.799922   -40.302855   -40.302855   0.50293323 
  186000    559.01615   -39.820636   -40.326446   -40.326446   0.50580956 
  187000    568.66479   -39.796384   -40.310924   -40.310924   0.51453985 
  188000    562.34966   -39.816886   -40.325712   -40.325712   0.50882579 
  189000    563.15829   -39.809779   -40.319337   -40.319337   0.50955745 
  190000    575.32858   -39.804473   -40.325042   -40.325042   0.52056939 
  191000    572.54896   -39.791926   -40.309981   -40.309981   0.51805433 
  192000    573.07705    -39.80604   -40.324573   -40.324573   0.51853216 
  193000    575.42413   -39.777022   -40.297678   -40.297678   0.52065584 
  194000    589.36189   -39.780015   -40.313282   -40.313282   0.53326702 
  195000    585.75592   -39.798315    -40.32832    -40.32832   0.53000427 
  196000    589.38329   -39.790661   -40.323947   -40.323947   0.53328639 
  197000    591.41041   -39.784827   -40.319948   -40.319948   0.53512057 
  198000    594.88648   -39.791322   -40.329588   -40.329588   0.53826579 
  199000    596.54582   -39.777907   -40.317674   -40.317674    0.5397672 
  200000     593.3597   -39.802519   -40.339404   -40.339404   0.53688433 
  201000    604.09548   -39.750657   -40.297255   -40.297255   0.54659828 
  202000    603.28654   -39.762688   -40.308555   -40.308555   0.54586634 
  203000    607.26327   -39.765646   -40.315111   -40.315111   0.54946457 
  204000    614.48233   -39.766405   -40.322401   -40.322401   0.55599653 
  205000    617.19755   -39.775999   -40.334453   -40.334453   0.55845332 
  206000     620.8253   -39.742444    -40.30418    -40.30418   0.56173578 
  207000    620.82468   -39.724231   -40.285966   -40.285966   0.56173522 
  208000    631.17784   -39.759512   -40.330615   -40.330615   0.57110297 
  209000    626.20636   -39.766629   -40.333234   -40.333234   0.56660467 
  210000    636.27701   -39.728336   -40.304053   -40.304053   0.57571681 
  211000    625.07573   -39.753531   -40.319113   -40.319113   0.56558166 
  212000    637.26883   -39.728305   -40.304919   -40.304919   0.57661423 
  213000    637.98453   -39.733116   -40.310378   -40.310378   0.57726181 
  214000    643.77352   -39.767087   -40.349587   -40.349587   0.58249981 
  215000    642.21474   -39.730267   -40.311356   -40.311356   0.58108939 
  216000    646.09544   -39.730081   -40.314682   -40.314682   0.58460073 
  217000    651.15331   -39.709599   -40.298776   -40.298776    0.5891772 
  218000    654.83559   -39.731435   -40.323944   -40.323944     0.592509 
  219000    657.72404   -39.699204   -40.294326   -40.294326   0.59512254 
  220000    664.21847   -39.682973   -40.283972   -40.283972   0.60099883 
  221000    659.37601   -39.713218   -40.309835   -40.309835   0.59661727 
  222000    664.21438     -39.7138   -40.314795   -40.314795   0.60099513 
  223000    672.73654   -39.676125   -40.284831   -40.284831   0.60870616 
  224000    680.02641   -39.689043   -40.304345   -40.304345   0.61530219 
  225000    673.62365   -39.664927   -40.274436   -40.274436   0.60950884 
  226000     685.4501   -39.697012   -40.317221   -40.317221   0.62020966 
  227000    673.97909   -39.642957   -40.252788   -40.252788   0.60983044 
  228000    680.27898    -39.65417   -40.269701   -40.269701   0.61553071 
  229000    686.11819   -39.691917   -40.312731   -40.312731   0.62081416 
  230000    697.93818    -39.62022   -40.251729   -40.251729   0.63150913 
  231000    693.40151   -39.609552   -40.236956   -40.236956   0.62740426 
  232000    699.19968   -39.590394   -40.223044   -40.223044   0.63265057 
  233000    700.66462   -39.627976   -40.261952   -40.261952   0.63397608 
  234000    692.70196   -39.601161   -40.227933   -40.227933    0.6267713 
  235000    716.81946   -39.676596   -40.325189   -40.325189   0.64859331 
  236000    696.19448   -39.636813   -40.266745   -40.266745    0.6299314 
  237000    697.53693    -39.52124   -40.152386   -40.152386   0.63114607 
  238000    726.24295   -39.527033   -40.184153   -40.184153   0.65711988 
  239000    718.16385   -39.547377   -40.197186   -40.197186   0.64980974 
  240000    709.06597   -39.604086   -40.245664   -40.245664   0.64157779 
  241000    719.72055   -39.554925   -40.206143   -40.206143   0.65121828 
  242000    726.87406   -39.417906   -40.075597   -40.075597   0.65769093 
  243000    727.35399    -39.52642   -40.184545   -40.184545   0.65812518 
  244000     736.7388   -39.446241   -40.112858   -40.112858   0.66661675 
  245000    718.11686   -39.413206   -40.062973   -40.062973   0.64976722 
  246000     729.3592   -39.506586   -40.166526   -40.166526   0.65993953 
  247000    731.34811   -39.438327   -40.100066   -40.100066   0.66173914 
  248000    764.49826   -39.526873   -40.218607   -40.218607   0.69173409 
  249000    749.44894   -39.603227   -40.281344   -40.281344   0.67811715 
  250000    755.91327   -39.497242   -40.181209   -40.181209   0.68396621 
  251000    754.42504   -39.484622   -40.167242   -40.167242   0.68261963 
  252000    748.84408   -39.543798   -40.221368   -40.221368   0.67756986 
  253000    761.47277   -39.526359   -40.215356   -40.215356   0.68899657 
  254000    778.61285   -39.543592   -40.248098   -40.248098   0.70450527 
  255000    774.87883   -39.499876   -40.201003   -40.201003   0.70112665 
  256000    765.37658   -39.499656   -40.192184   -40.192184   0.69252881 
  257000     779.6466   -39.384352   -40.089792   -40.089792   0.70544063 
  258000    782.06212    -39.40985   -40.117476   -40.117476   0.70762624 
  259000    765.77682   -39.464846   -40.157737   -40.157737   0.69289096 
  260000    762.83539   -39.532673   -40.222903   -40.222903    0.6902295 
  261000     775.3113   -39.400517   -40.102035   -40.102035   0.70151796 
  262000    816.84277   -39.470968   -40.210064   -40.210064    0.7390965 
  263000    770.55107   -39.540174   -40.237385   -40.237385    0.6972108 
  264000    792.82037    -39.40697   -40.124331   -40.124331   0.71736053 
  265000    804.60653    -39.49278   -40.220805   -40.220805    0.7280249 
  266000    798.09414   -39.473184   -40.195317   -40.195317   0.72213235 
  267000    817.16117    -39.53283   -40.272215   -40.272215    0.7393846 
  268000    792.81387    -39.41395   -40.131304   -40.131304   0.71735465 
  269000    810.02315   -39.421504    -40.15443    -40.15443   0.73292597 
  270000     808.1451    -39.45945   -40.190676   -40.190676   0.73122667 
  271000    814.47509   -39.494199   -40.231153   -40.231153   0.73695418 
  272000    800.83149   -39.543685   -40.268295   -40.268295   0.72460917 
  273000    831.38412   -39.380875   -40.133129   -40.133129   0.75225383 
  274000    825.77433   -39.438002    -40.18518    -40.18518   0.74717797 
  275000    805.63495   -39.476924   -40.205879   -40.205879   0.72895543 
  276000    835.02587   -39.386266   -40.141815   -40.141815   0.75554896 
  277000    831.06576   -39.513425   -40.265391   -40.265391   0.75196577 
  278000    827.90039   -39.501423   -40.250525   -40.250525   0.74910167 
  279000    819.60378    -39.39864   -40.140235   -40.140235   0.74159473 
  280000    856.13723   -39.470508   -40.245159   -40.245159   0.77465096 
  281000    834.80467   -39.435684   -40.191033   -40.191033   0.75534881 
  282000    852.55873   -39.411861   -40.183274   -40.183274   0.77141305 
  283000    838.12257     -39.4747   -40.233051   -40.233051   0.75835092 
  284000    846.30444   -39.409231   -40.174985   -40.174985   0.76575404 
  285000    866.02028   -39.450686   -40.234279   -40.234279   0.78359334 
  286000    860.35507   -39.481389   -40.259857   -40.259857   0.77846734 
  287000    856.61206     -39.4677   -40.242781   -40.242781    0.7750806 
  288000     871.6442   -39.405451   -40.194133   -40.194133   0.78868199 
  289000    873.50851   -39.466234   -40.256603   -40.256603   0.79036885 
  290000     870.3613   -39.410336   -40.197857   -40.197857   0.78752119 
  291000    869.48462    -39.37453   -40.161258   -40.161258   0.78672796 
  292000     873.9445   -39.455712   -40.246475   -40.246475   0.79076335 
  293000    879.45507   -39.417365   -40.213114   -40.213114   0.79574942 
  294000    879.70258   -39.399254   -40.195227   -40.195227   0.79597338 
  295000    889.71844   -39.303706   -40.108742   -40.108742   0.80503594 
  296000    884.81305   -39.320687   -40.121284   -40.121284   0.80059744 
  297000    886.59131   -39.443611   -40.245817   -40.245817   0.80220645 
  298000     896.9175   -39.408768   -40.220317   -40.220317    0.8115498 
  299000    900.99358   -39.370272    -40.18551    -40.18551   0.81523792 
  300000    905.10948   -39.397407   -40.216369   -40.216369   0.81896208 
  301000    902.35287   -39.384689   -40.201157   -40.201157   0.81646784 
  302000     887.0512   -39.258683   -40.061305   -40.061305   0.80262257 
  303000    907.61127   -39.346571   -40.167797   -40.167797   0.82122575 
  304000    916.30237   -39.409512   -40.238602   -40.238602   0.82908964 
  305000    899.72573   -39.300509     -40.1146     -40.1146   0.81409075 
  306000    904.79872   -39.441262   -40.259943   -40.259943    0.8186809 
  307000    924.90416   -39.420425   -40.257298   -40.257298   0.83687272 
  308000    916.28562   -39.378993   -40.208067   -40.208067   0.82907448 
  309000    922.20306   -39.405908   -40.240336   -40.240336   0.83442871 
  310000    936.01455   -39.304692   -40.151618   -40.151618   0.84692563 
  311000    925.55565    -39.40282   -40.240283   -40.240283    0.8374622 
  312000    936.24868   -39.357635   -40.204772   -40.204772   0.84713748 
  313000     926.3294   -39.408882   -40.247044   -40.247044   0.83816231 
  314000    940.53907   -39.393206   -40.244226   -40.244226   0.85101951 
  315000     944.8305   -39.342788   -40.197691   -40.197691   0.85490249 
  316000    949.58136   -39.438978   -40.298179   -40.298179   0.85920117 
  317000    951.98892   -39.371966   -40.233346   -40.233346   0.86137958 
  318000    958.93315   -39.421067    -40.28873    -40.28873   0.86766287 
  319000     955.0809   -39.339591   -40.203768   -40.203768   0.86417727 
  320000    962.99209   -39.398953   -40.270288   -40.270288   0.87133548 
  321000    958.50268   -39.328948   -40.196221   -40.196221   0.86727336 
  322000    956.60129   -39.266611   -40.132164   -40.132164   0.86555295 
  323000    984.74534   -39.336315   -40.227334   -40.227334   0.89101828 
  324000    967.19732   -39.300555   -40.175695   -40.175695   0.87514046 
  325000    984.05487   -39.416765   -40.307159   -40.307159   0.89039353 
  326000    984.03605   -39.329633    -40.22001    -40.22001    0.8903765 
  327000    985.31004   -39.340625   -40.232154   -40.232154   0.89152923 
  328000    987.57811   -39.347374   -40.240956   -40.240956   0.89358142 
  329000    987.75375   -39.270291   -40.164031   -40.164031   0.89374035 
  330000    984.30266   -39.350979   -40.241597   -40.241597   0.89061773 
  331000    980.42538   -39.282037   -40.169146   -40.169146   0.88710949 
  332000    979.02232   -39.280928   -40.166768   -40.166768   0.88583997 
  333000    997.78458   -39.191674    -40.09449    -40.09449   0.90281646 
  334000    1015.8997   -39.377683   -40.296891   -40.296891   0.91920742 
  335000    990.71117   -39.382201   -40.278617   -40.278617   0.89641628 
  336000    1025.4194   -39.332903   -40.260724   -40.260724     0.927821 
  337000    1021.0945   -39.315415   -40.239322   -40.239322   0.92390777 
  338000    1005.4408   -39.230772   -40.140516   -40.140516   0.90974394 
  339000    1044.7967   -39.262869   -40.208223   -40.208223   0.94535398 
  340000    1017.9165   -39.345237   -40.266269   -40.266269   0.92103225 
  341000    1020.3476   -39.239234   -40.162466   -40.162466   0.92323192 
  342000     1010.828   -39.275436   -40.190055   -40.190055   0.91461841 
  343000    1035.6568   -39.228836    -40.16592    -40.16592   0.93708408 
  344000    1060.9258   -39.334837   -40.294785   -40.294785   0.95994796 
  345000    1039.3343     -39.2529   -40.193312   -40.193312   0.94041153 
  346000    1028.9471     -39.2915   -40.222513   -40.222513   0.93101295 
  347000    1034.2136   -39.238121     -40.1739     -40.1739   0.93577819 
  348000    1044.5368   -39.245655   -40.190774   -40.190774   0.94511887 
  349000    1053.3773   -39.216135   -40.169252   -40.169252   0.95311793 
  350000    1037.8641   -39.316272   -40.255353   -40.255353   0.93908127 
  351000    1065.6844   -39.259642   -40.223896   -40.223896   0.96425365 
  352000    1053.9466   -39.289143   -40.242776   -40.242776   0.95363302 
  353000    1067.0786   -39.260765    -40.22628    -40.22628   0.96551517 
  354000     1072.038   -39.281474   -40.251476   -40.251476   0.97000254 
  355000    1071.5352   -39.318278   -40.287826   -40.287826   0.96954754 
  356000    1061.4916   -39.198301   -40.158761   -40.158761   0.96045991 
  357000    1093.1187    -39.19798   -40.187056   -40.187056   0.98907675 
  358000    1068.5812   -39.219276   -40.186151   -40.186151   0.96687468 
  359000    1083.1303   -39.265594   -40.245633   -40.245633   0.98003904 
  360000    1076.8505   -39.209067   -40.183424   -40.183424   0.97435701 
  361000    1077.3923   -39.161737   -40.136585   -40.136585   0.97484723 
  362000     1067.059   -39.175484   -40.140982   -40.140982   0.96549743 
  363000    1069.3786     -39.1564   -40.123996   -40.123996   0.96759627 
  364000    1092.0252   -39.176879   -40.164966   -40.164966   0.98808734 
  365000    1081.1489   -39.219945   -40.198191   -40.198191   0.97824628 
  366000    1098.9415   -39.258634   -40.252979   -40.252979   0.99434539 
  367000    1105.7388   -39.142839   -40.143334   -40.143334    1.0004957 
  368000    1107.7546   -39.237134   -40.239453   -40.239453    1.0023196 
  369000    1121.8823   -39.208702   -40.223804   -40.223804    1.0151027 
  370000    1121.2505   -39.166003   -40.180534   -40.180534     1.014531 
  371000    1113.1824   -39.248803   -40.256034   -40.256034    1.0072309 
  372000    1120.6994   -39.115986   -40.130019   -40.130019    1.0140324 
  373000     1120.971   -39.195922     -40.2102     -40.2102    1.0142782 
  374000    1120.7322   -39.102488   -40.116551   -40.116551    1.0140621 
  375000    1126.5298   -39.169829   -40.189137   -40.189137    1.0193078 
  376000    1127.6063   -39.165752   -40.186034   -40.186034    1.0202818 
  377000    1125.4548   -39.257505    -40.27584    -40.27584    1.0183351 
  378000     1152.179   -39.079558   -40.122074   -40.122074    1.0425158 
  379000    1128.9033   -39.106431   -40.127887   -40.127887    1.0214554 
  380000     1140.637   -39.213241   -40.245313   -40.245313    1.0320723 
  381000    1128.6975   -39.129917   -40.151186   -40.151186    1.0212692 
  382000    1166.6407   -39.071892   -40.127493   -40.127493     1.055601 
  383000    1139.3788   -39.144434   -40.175367   -40.175367    1.0309339 
  384000    1131.6886   -39.103434    -40.12741    -40.12741    1.0239756 
  385000    1163.8937   -39.070867   -40.123983   -40.123983    1.0531154 
  386000    1163.4857   -39.249276   -40.302023   -40.302023    1.0527463 
  387000    1125.8639   -39.046475    -40.06518    -40.06518    1.0187053 
  388000    1185.1275    -39.19697   -40.269298   -40.269298    1.0723282 
  389000    1163.1973   -39.069184    -40.12167    -40.12167    1.0524854 
  390000    1152.1667   -39.127868   -40.170372   -40.170372    1.0425046 
  391000    1186.5009   -39.128393   -40.201964   -40.201964    1.0735709 
  392000    1172.2417   -38.953161    -40.01383    -40.01383    1.0606689 
  393000    1194.1187   -39.119008   -40.199472   -40.199472    1.0804637 
  394000    1191.0072   -38.947271   -40.024919   -40.024919    1.0776483 
  395000    1200.9705   -39.105936   -40.192599   -40.192599    1.0866633 
  396000    1179.2848   -39.089283   -40.156325   -40.156325    1.0670416 
  397000    1201.7633   -39.035966   -40.123347   -40.123347    1.0873807 
  398000    1189.8924   -39.178702   -40.255341   -40.255341    1.0766396 
  399000    1209.7633   -39.000028   -40.094647   -40.094647    1.0946192 
  400000    1200.8391   -39.080051   -40.166596   -40.166596    1.0865444 
  401000    1204.5744    -39.02666   -40.116584   -40.116584    1.0899242 
  402000    1192.1809   -39.078669    -40.15738    -40.15738    1.0787104 
  403000    1194.5389   -39.135377   -40.216221   -40.216221    1.0808439 
  404000    1206.5157   -39.021821   -40.113502   -40.113502    1.0916807 
  405000     1222.278   -39.200961   -40.306904   -40.306904    1.1059428 
  406000    1220.9009   -39.154211   -40.258908   -40.258908    1.1046968 
  407000    1230.5885   -39.179367   -40.292829   -40.292829    1.1134624 
  408000    1218.3962   -39.071098   -40.173528   -40.173528    1.1024305 
  409000    1235.5685   -39.123741    -40.24171    -40.24171    1.1179684 
  410000    1220.2502   -39.077167   -40.181275   -40.181275     1.104108 
  411000    1235.6102   -39.031563   -40.149569   -40.149569     1.118006 
  412000    1249.1019   -39.176845   -40.307059   -40.307059    1.1302136 
  413000    1237.9783   -38.956302   -40.076451   -40.076451    1.1201488 
  414000    1227.3831   -39.069455   -40.180017   -40.180017     1.110562 
  415000    1267.6586   -39.026825   -40.173829   -40.173829    1.1470041 
  416000    1260.7496   -39.040285   -40.181038   -40.181038    1.1407528 
  417000    1250.3739   -39.096812   -40.228177   -40.228177    1.1313646 
  418000    1253.6085   -39.011623   -40.145914   -40.145914    1.1342913 
  419000    1248.2807   -39.053318   -40.182789   -40.182789    1.1294706 
  420000    1263.0071   -38.956731   -40.099526   -40.099526    1.1427953 
  421000    1250.5829   -39.129762   -40.261316   -40.261316    1.1315537 
  422000     1241.048   -39.007307   -40.130233   -40.130233    1.1229263 
  423000    1272.0921   -38.949682   -40.100698   -40.100698    1.1510157 
  424000    1271.3552   -39.050012   -40.200361   -40.200361    1.1503489 
  425000    1287.6454   -38.878241    -40.04333    -40.04333    1.1650887 
  426000    1283.1918   -38.897381   -40.058439   -40.058439    1.1610589 
  427000    1287.3128   -39.006695   -40.171482   -40.171482    1.1647877 
  428000    1274.0629   -38.990073   -40.142872   -40.142872    1.1527989 
  429000    1285.9473   -38.926747   -40.090299   -40.090299    1.1635521 
  430000      1296.23   -38.973011   -40.145867   -40.145867    1.1728561 
  431000    1291.9019    -38.86843    -40.03737    -40.03737      1.16894 
  432000    1314.6813   -38.971663   -40.161214   -40.161214    1.1895513 
  433000    1303.2137   -38.828195    -40.00737    -40.00737    1.1791751 
  434000     1296.659   -38.903828   -40.077072   -40.077072    1.1732443 
  435000    1293.8685   -38.932009   -40.102729   -40.102729    1.1707194 
  436000    1297.0919   -38.882444    -40.05608    -40.05608     1.173636 
  437000    1345.2671   -38.950803   -40.168029   -40.168029    1.2172259 
  438000    1324.7214   -38.854217   -40.052853   -40.052853    1.1986358 
  439000    1320.7003   -38.948677   -40.143674   -40.143674    1.1949974 
  440000    1343.3689   -38.944746   -40.160254   -40.160254    1.2155084 
  441000    1334.4237   -38.952227   -40.159642   -40.159642    1.2074146 
  442000    1323.0341   -38.928414   -40.125523   -40.125523     1.197109 
  443000     1340.058    -38.94907   -40.161583   -40.161583    1.2125126 
  444000    1334.3137   -38.888036   -40.095352   -40.095352    1.2073151 
  445000     1358.722    -38.92686    -40.15626    -40.15626    1.2294002 
  446000    1349.1849   -38.892789    -40.11356    -40.11356    1.2207708 
  447000    1317.3236   -38.839391   -40.031333   -40.031333     1.191942 
  448000    1376.2483   -38.933146   -40.178404   -40.178404    1.2452584 
  449000    1340.3433    -38.98533   -40.198101   -40.198101    1.2127708 
  450000    1329.4843   -38.993315    -40.19626    -40.19626    1.2029453 
  451000    1346.0086   -39.015172   -40.233069   -40.233069    1.2178969 
  452000     1364.069   -38.898702   -40.132941   -40.132941    1.2342383 
  453000    1356.5865   -39.008944   -40.236412   -40.236412     1.227468 
  454000    1343.0647   -38.965859   -40.181092   -40.181092    1.2152331 
  455000    1379.1812     -38.9664   -40.214312   -40.214312    1.2479121 
  456000    1370.9018   -38.941434   -40.181854   -40.181854    1.2404207 
  457000    1372.2401   -38.822254   -40.063886   -40.063886    1.2416317 
  458000     1365.351   -39.022677   -40.258075   -40.258075    1.2353983 
  459000    1357.2037   -38.883067   -40.111093   -40.111093    1.2280264 
  460000    1379.5655   -38.863205   -40.111465   -40.111465    1.2482598 
  461000    1391.7609   -38.884994   -40.144289   -40.144289    1.2592945 
  462000    1395.7365   -38.936287   -40.199179   -40.199179    1.2628917 
  463000    1365.0581   -38.903189   -40.138322   -40.138322    1.2351333 
  464000    1368.2413    -38.82403   -40.062043   -40.062043    1.2380135 
  465000     1407.337   -38.889063   -40.162451   -40.162451    1.2733881 
  466000     1391.817   -38.826381   -40.085726   -40.085726    1.2593452 
  467000     1392.415   -38.817187   -40.077073   -40.077073    1.2598864 
  468000    1398.2335   -38.865194   -40.130345   -40.130345    1.2651511 
  469000    1411.2119   -38.847206     -40.1241     -40.1241    1.2768942 
  470000    1424.6431   -38.647259   -39.936306   -39.936306     1.289047 
  471000    1390.9652    -38.82486   -40.083434   -40.083434    1.2585746 
  472000     1432.909    -38.72135   -40.017876   -40.017876    1.2965262 
  473000    1416.0787   -38.786379   -40.067677   -40.067677    1.2812978 
  474000    1440.1161    -38.79016   -40.093208   -40.093208    1.3030473 
  475000    1412.1895   -38.811636   -40.089415   -40.089415    1.2777787 
  476000    1434.4028   -38.833923   -40.131801   -40.131801    1.2978778 
  477000    1415.0905   -38.589446    -39.86985    -39.86985    1.2804036 
  478000    1466.1093   -38.703284   -40.029851   -40.029851    1.3265665 
  479000    1439.2126   -38.621558   -39.923788   -39.923788    1.3022298 
  480000    1412.5017   -38.820613   -40.098675   -40.098675    1.2780612 
  481000    1396.1352   -38.757905   -40.021158   -40.021158    1.2632525 
  482000    1448.6615   -38.657163   -39.967942   -39.967942    1.3107793 
  483000    1445.5365    -38.74754   -40.055492   -40.055492    1.3079518 
  484000    1425.9318   -38.708283   -39.998496   -39.998496     1.290213 
  485000    1458.1657   -38.801743   -40.121122   -40.121122     1.319379 
  486000    1457.7623   -38.806209   -40.125223   -40.125223    1.3190139 
  487000    1474.4893   -38.784537   -40.118686   -40.118686    1.3341489 
  488000    1456.5788   -38.778319   -40.096262   -40.096262    1.3179431 
  489000    1463.2779   -38.787436   -40.111441   -40.111441    1.3240046 
  490000    1449.9431   -38.871674   -40.183613   -40.183613     1.311939 
  491000    1483.5661   -38.736626   -40.078988   -40.078988    1.3423618 
  492000    1502.6275   -38.669691     -40.0293     -40.0293    1.3596089 
  493000    1482.8268   -38.772866   -40.114559   -40.114559    1.3416928 
  494000    1475.5028   -38.715305   -40.050371   -40.050371     1.335066 
  495000    1458.5503    -38.77945   -40.099177   -40.099177     1.319727 
  496000    1459.9315   -38.726988   -40.047964   -40.047964    1.3209767 
  497000     1473.043   -38.723385   -40.056225   -40.056225    1.3328402 
  498000    1485.6616   -38.857369   -40.201626   -40.201626    1.3442578 
  499000    1498.7031   -38.770494   -40.126552   -40.126552    1.3560581 
  500000    1486.5169   -38.875871   -40.220902   -40.220902    1.3450317 
  501000    1509.4772   -38.685942   -40.051748   -40.051748    1.3658067 
  502000    1500.1855   -38.772621   -40.130021   -40.130021    1.3573994 
  503000    1490.0855   -38.758856   -40.107116   -40.107116    1.3482607 
  504000    1544.5032   -38.857971    -40.25547    -40.25547    1.3974989 
  505000    1509.0198     -38.7851   -40.150492   -40.150492    1.3653928 
  506000    1520.8583   -38.584303   -39.960407   -39.960407    1.3761045 
  507000    1543.0181   -38.729847   -40.126002   -40.126002    1.3961552 
  508000    1533.2536   -38.653555   -40.040875   -40.040875      1.38732 
  509000    1528.6973   -38.605695   -39.988893   -39.988893    1.3831974 
  510000    1512.4264   -38.653269   -40.021745   -40.021745    1.3684752 
  511000    1518.9449    -38.70288   -40.077253   -40.077253    1.3743733 
  512000    1556.1905   -38.671468   -40.079541   -40.079541    1.4080739 
  513000    1539.1524   -38.810987   -40.203644   -40.203644    1.3926575 
  514000    1557.9453   -38.679083   -40.088745   -40.088745    1.4096616 
  515000    1545.3604   -38.801364   -40.199639   -40.199639    1.3982745 
  516000    1539.9004   -38.640632   -40.033966   -40.033966    1.3933343 
  517000    1565.3079   -38.753706    -40.17003    -40.17003    1.4163235 
  518000     1552.362   -38.744602   -40.149211   -40.149211    1.4046098 
  519000     1537.862   -38.608602   -40.000091   -40.000091    1.3914899 
  520000    1575.4443   -38.670067   -40.095562   -40.095562    1.4254951 
  521000    1550.9724   -38.672192   -40.075544   -40.075544    1.4033524 
  522000    1573.5165   -38.601714   -40.025465   -40.025465    1.4237508 
  523000    1560.0744   -38.707198   -40.118786   -40.118786    1.4115881 
  524000    1574.7296    -38.66841   -40.093259   -40.093259    1.4248484 
  525000    1583.7895   -38.830451   -40.263497   -40.263497     1.433046 
  526000    1585.8691   -38.656729   -40.091657   -40.091657    1.4349277 
  527000    1592.4876   -38.752927   -40.193843   -40.193843    1.4409162 
  528000    1578.3554   -38.809297   -40.237426   -40.237426    1.4281291 
  529000    1579.3539    -38.76748   -40.196513   -40.196513    1.4290326 
  530000     1594.531   -38.600871   -40.043637   -40.043637    1.4427652 
  531000    1598.0432   -38.742179   -40.188122   -40.188122     1.445943 
  532000     1608.435   -38.734294    -40.18964    -40.18964    1.4553458 
  533000    1612.4383   -38.730232     -40.1892     -40.1892     1.458968 
  534000    1589.7893   -38.672051   -40.110525   -40.110525    1.4384748 
  535000     1619.814    -38.54336   -40.009002   -40.009002    1.4656418 
  536000    1618.5984   -38.613362   -40.077904   -40.077904    1.4645418 
  537000    1617.6928   -38.571297    -40.03502    -40.03502    1.4637224 
  538000    1615.5657     -38.6842   -40.145998   -40.145998    1.4617978 
  539000     1629.889   -38.686514   -40.161272   -40.161272    1.4747579 
  540000    1597.2325   -38.708262   -40.153472   -40.153472    1.4452095 
  541000    1604.5229   -38.666989   -40.118795   -40.118795     1.451806 
  542000    1639.5382   -38.619256   -40.102745   -40.102745    1.4834887 
  543000    1638.0653   -38.466424    -39.94858    -39.94858    1.4821559 
  544000    1638.7456   -38.738182   -40.220954   -40.220954    1.4827714 
  545000     1627.805   -38.533045   -40.005918   -40.005918    1.4728722 
  546000     1628.666   -38.535713   -40.009364   -40.009364    1.4736512 
  547000    1650.8727   -38.603592   -40.097337   -40.097337    1.4937444 
  548000    1626.2121   -38.662909    -40.13434    -40.13434    1.4714309 
  549000    1658.6018   -38.709466   -40.210204   -40.210204    1.5007378 
  550000    1660.0056   -38.591669   -40.093677   -40.093677    1.5020079 
  551000    1630.0927   -38.714698    -40.18964    -40.18964    1.4749422 
  552000    1634.3121   -38.613033   -40.091793   -40.091793    1.4787599 
  553000     1677.134   -38.722653   -40.240159   -40.240159    1.5175061 
  554000    1652.9803   -38.619421   -40.115073   -40.115073    1.4956514 
  555000    1664.8739   -38.611006   -40.117419   -40.117419    1.5064129 
  556000    1644.4208   -38.577568   -40.065474   -40.065474    1.4879065 
  557000    1674.9611   -38.538742   -40.054282   -40.054282      1.51554 
  558000    1657.8799   -38.604521   -40.104605   -40.104605    1.5000846 
  559000    1712.6557   -38.502362   -40.052009   -40.052009    1.5496469 
  560000    1659.1333   -38.475052   -39.976271   -39.976271    1.5012187 
  561000    1672.7391   -38.510185   -40.023715   -40.023715    1.5135295 
  562000    1715.2911    -38.45192   -40.003951   -40.003951    1.5520314 
  563000    1672.5136   -38.671472   -40.184798   -40.184798    1.5133254 
  564000    1685.2523   -38.572642   -40.097494   -40.097494    1.5248517 
  565000     1693.105   -38.546775   -40.078732   -40.078732     1.531957 
  566000     1707.365   -38.640546   -40.185406   -40.185406    1.5448597 
  567000    1699.3501   -38.407825   -39.945433   -39.945433    1.5376077 
  568000    1722.9359   -38.557237   -40.116185   -40.116185    1.5589486 
  569000    1713.3459   -38.640386   -40.190657   -40.190657    1.5502714 
  570000    1712.6209   -38.664385   -40.214001   -40.214001    1.5496153 
  571000    1728.0215   -38.624415   -40.187965   -40.187965    1.5635501 
  572000    1695.2028   -38.604013   -40.137868   -40.137868    1.5338551 
  573000    1725.5982   -38.645829   -40.207186   -40.207186    1.5613575 
  574000    1721.5823   -38.700108   -40.257832   -40.257832    1.5577239 
  575000    1715.0689   -38.597057   -40.148887   -40.148887    1.5518303 
  576000     1721.168   -38.612476   -40.169825   -40.169825    1.5573489 
  577000    1717.9445   -38.504158    -40.05859    -40.05859    1.5544323 
  578000    1734.8265   -38.547528   -40.117236   -40.117236    1.5697075 
  579000    1722.9887   -38.499202   -40.058199   -40.058199    1.5589963 
  580000     1748.141   -38.479107   -40.060861   -40.060861    1.5817547 
  581000    1756.1199   -38.536828   -40.125802   -40.125802    1.5889742 
  582000    1776.0978   -38.557714   -40.164765   -40.164765    1.6070506 
  583000    1757.0789   -38.241369   -39.831211   -39.831211    1.5898419 
  584000    1766.2563   -38.127994    -39.72614    -39.72614    1.5981458 
  585000    1767.9906   -38.129983   -39.729698   -39.729698    1.5997151 
  586000    1747.7868   -38.569387   -40.150821   -40.150821    1.5814342 
  587000    1700.1752   -38.181702   -39.720056   -39.720056    1.5383543 
  588000    1731.7972   -38.254978   -39.821945   -39.821945    1.5669665 
  589000    1766.9706   -38.169176   -39.767969   -39.767969    1.5987922 
  590000    1757.0044   -38.353335    -39.94311    -39.94311    1.5897745 
  591000    1792.9074    -38.29792    -39.92018    -39.92018    1.6222603 
  592000    1784.3852   -38.382758   -39.997307   -39.997307    1.6145493 
  593000    1789.3363   -38.509378   -40.128407   -40.128407    1.6190291 
  594000    1767.8983   -38.225292   -39.824923   -39.824923    1.5996315 
  595000    1789.4493   -38.054517   -39.673648   -39.673648    1.6191314 
  596000    1787.1512   -38.282125   -39.899177   -39.899177     1.617052 
  597000    1821.9783   -38.390656    -40.03922    -40.03922    1.6485642 
  598000    1754.4902   -38.277599   -39.865098   -39.865098    1.5874996 
  599000    1794.2377   -38.394425   -40.017889   -40.017889     1.623464 
  600000    1829.5122   -38.413141   -40.068522   -40.068522    1.6553811 
  601000    1797.0295   -38.221899   -39.847889   -39.847889      1.62599 
  602000     1808.233   -38.241744   -39.877871   -39.877871    1.6361272 
  603000    1847.6741   -38.485346    -40.15716    -40.15716    1.6718144 
  604000    1793.5728   -38.430682   -40.053544   -40.053544    1.6228624 
  605000    1836.2402   -38.500496   -40.161964   -40.161964    1.6614687 
  606000    1828.5582   -38.303606   -39.958124   -39.958124    1.6545179 
  607000    1813.9393    -38.37505    -40.01634    -40.01634    1.6412904 
  608000    1827.0957   -38.400123   -40.053318   -40.053318    1.6531945 
  609000     1829.678   -38.513579    -40.16911    -40.16911    1.6555311 
  610000    1839.3048   -38.456102   -40.120343   -40.120343    1.6642417 
  611000    1827.9518   -38.410974   -40.064943   -40.064943    1.6539692 
  612000    1823.3222   -38.412605   -40.062385   -40.062385    1.6497802 
  613000    1847.1606   -38.432013   -40.103363   -40.103363    1.6713497 
  614000    1853.6475   -38.442886   -40.120105   -40.120105    1.6772192 
  615000    1839.5446   -38.406907   -40.071365   -40.071365    1.6644586 
  616000    1817.9243   -38.431963    -40.07686    -40.07686    1.6448961 
  617000    1832.2443   -38.478464   -40.136317   -40.136317    1.6578532 
  618000    1865.5651   -38.370573   -40.058576   -40.058576    1.6880026 
  619000    1839.0812   -38.460015   -40.124055   -40.124055    1.6640393 
  620000    1874.1149   -38.296487   -39.992225   -39.992225    1.6957386 
  621000    1835.9246   -38.445104   -40.106287   -40.106287    1.6611831 
  622000    1861.7489   -38.227852   -39.912401   -39.912401    1.6845495 
  623000    1889.2871    -38.38224   -40.091706   -40.091706    1.7094667 
  624000    1889.3624   -38.406755    -40.11629    -40.11629    1.7095348 
  625000    1885.1785   -38.265216   -39.970965   -39.970965    1.7057491 
  626000    1857.8108   -38.255409   -39.936395   -39.936395    1.6809862 
  627000    1932.6103   -38.293598   -40.042264   -40.042264    1.7486664 
  628000     1849.647   -38.246006   -39.919606   -39.919606    1.6735995 
  629000    1860.4966   -38.390976   -40.074392   -40.074392    1.6834164 
  630000    1873.7915   -38.349452   -40.044898   -40.044898     1.695446 
  631000    1932.0712   -38.239235   -39.987413   -39.987413    1.7481787 
  632000    1871.4223   -38.152831   -39.846133   -39.846133    1.6933022 
  633000    1882.0126   -38.333309   -40.036193   -40.036193    1.7028845 
  634000    1901.3218   -38.374523   -40.094879   -40.094879    1.7203559 
  635000    1915.3913    -38.19285   -39.925937   -39.925937    1.7330863 
  636000    1911.3843   -38.003706   -39.733166   -39.733166    1.7294607 
  637000    1900.3816   -38.387366   -40.106871   -40.106871    1.7195052 
  638000    1895.9837   -38.352025   -40.067551   -40.067551    1.7155259 
  639000     1921.857    -38.26987   -40.008807   -40.008807    1.7389366 
  640000    1912.7919   -38.030752   -39.761486   -39.761486    1.7307343 
  641000    1965.8762   -38.273127   -40.051893   -40.051893    1.7787661 
  642000     1955.283   -38.348154   -40.117335   -40.117335    1.7691812 
  643000    1915.8722   -38.298919   -40.032441   -40.032441    1.7335214 
  644000    1909.9319   -38.235906   -39.964052   -39.964052    1.7281465 
  645000    1959.5095    -38.09451   -39.867516   -39.867516    1.7730054 
  646000    1969.4419   -38.169555   -39.951547   -39.951547    1.7819924 
  647000    1927.6183   -38.147957   -39.892107   -39.892107    1.7441496 
  648000    1943.3411   -38.119575   -39.877951   -39.877951    1.7583759 
  649000    1893.6365   -37.884928    -39.59833    -39.59833    1.7134021 
  650000    1988.5079   -38.207114   -40.006358   -40.006358    1.7992438 
  651000    1979.7041   -38.243401   -40.034679   -40.034679    1.7912779 
  652000    1931.0027    -38.06709   -39.814302   -39.814302    1.7472118 
  653000    1952.7678   -38.109555   -39.876461   -39.876461    1.7669053 
  654000    1930.4299   -38.054363   -39.801057   -39.801057    1.7466935 
  655000      1981.89   -38.307026   -40.100281   -40.100281    1.7932557 
  656000    1972.6751   -38.078964   -39.863881   -39.863881    1.7849179 
  657000    1962.3618   -38.004194    -39.77978    -39.77978    1.7755862 
  658000    2003.7834   -38.289358   -40.102424   -40.102424    1.8130654 
  659000    1963.6994   -37.972404     -39.7492     -39.7492    1.7767965 
  660000    2014.0303   -38.069759   -39.892095   -39.892095    1.8223369 
  661000    1944.5033   -37.953911   -39.713339   -39.713339    1.7594275 
  662000    1990.8795   -37.681305   -39.482695   -39.482695    1.8013896 
  663000     1999.281   -38.244253   -40.053245   -40.053245    1.8089915 
  664000    1970.2602   -38.104002   -39.886735   -39.886735    1.7827329 
  665000     1950.737   -37.711808   -39.476876   -39.476876    1.7650678 
  666000    2052.5331   -38.074039   -39.931214   -39.931214    1.8571751 
  667000    2017.2343   -38.062131   -39.887367   -39.887367    1.8252359 
  668000    1952.6259   -37.613064   -39.379841   -39.379841    1.7667769 
  669000    1990.4627   -38.294247    -40.09526    -40.09526    1.8010125 
  670000     2050.166   -37.740517    -39.59555    -39.59555    1.8550333 
  671000     2032.469   -37.906568   -39.745589   -39.745589    1.8390206 
  672000    2023.2858   -37.817908   -39.648619   -39.648619    1.8307116 
  673000    2006.1298   -37.666542   -39.481731   -39.481731    1.8151884 
  674000    2005.4225   -38.074236   -39.888784   -39.888784    1.8145484 
  675000    2043.8045     -37.9474   -39.796677   -39.796677    1.8492772 
  676000    2044.8529   -37.774397   -39.624623   -39.624623    1.8502259 
  677000    2015.7776   -38.112238   -39.936156   -39.936156    1.8239179 
  678000    2073.9813   -38.048719     -39.9253     -39.9253    1.8765819 
  679000    2059.1598   -37.830374   -39.693545   -39.693545     1.863171 
  680000    2039.1752   -37.502628   -39.347717   -39.347717    1.8450885 
  681000    2019.6989   -37.744522   -39.571988   -39.571988     1.827466 
  682000    2009.0431   -37.393875     -39.2117     -39.2117    1.8178244 
  683000     2071.896   -37.769449   -39.644144   -39.644144     1.874695 
  684000    2053.7232   -38.066119   -39.924371   -39.924371    1.8582519 
  685000    2009.4664   -37.621176   -39.439383   -39.439383    1.8182074 
  686000     2056.073   -37.694194   -39.554572   -39.554572    1.8603781 
  687000    2009.1865   -37.785233   -39.603187   -39.603187    1.8179541 
  688000    2029.5436   -37.634168   -39.470542   -39.470542    1.8363737 
  689000    2103.8616   -37.810836   -39.714455   -39.714455    1.9036182 
  690000    2082.3516   -37.705603   -39.589759   -39.589759    1.8841555 
  691000    2087.1409   -37.905603   -39.794092   -39.794092    1.8884889 
  692000    2114.6997   -37.947347   -39.860772   -39.860772    1.9134247 
  693000    2081.9074   -37.769357   -39.653111   -39.653111    1.8837535 
  694000    2064.9486   -37.708306   -39.576715   -39.576715    1.8684089 
  695000    2103.6954   -38.231747   -40.135215   -40.135215    1.9034678 
  696000    2034.4088   -37.594494    -39.43527    -39.43527    1.8407759 
  697000     2111.293   -38.053302   -39.963645   -39.963645    1.9103423 
  698000    2088.1814   -38.004782   -39.894212   -39.894212    1.8894305 
  699000    2089.2325   -37.964416   -39.854797   -39.854797    1.8903815 
  700000    2076.0308    -38.09348   -39.971916   -39.971916    1.8784363 
  701000    2085.7541   -38.061426    -39.94866    -39.94866    1.8872341 
  702000    2118.3359   -38.133683   -40.050397   -40.050397    1.9167149 
  703000    2118.9261   -38.122176   -40.039425   -40.039425    1.9172489 
  704000    2102.4704   -38.091695   -39.994054   -39.994054    1.9023594 
  705000     2112.164   -37.818879   -39.730009   -39.730009    1.9111303 
  706000    2136.9603   -37.774038   -39.707605   -39.707605    1.9335666 
  707000    2135.7508   -38.014085   -39.946557   -39.946557    1.9324722 
  708000    2128.0707   -38.051814   -39.977338   -39.977338    1.9255231 
  709000    2155.9135     -38.1127   -40.063416   -40.063416    1.9507159 
  710000    2107.7215   -38.105622   -40.012732   -40.012732    1.9071107 
  711000    2172.6967    -37.96186   -39.927762   -39.927762    1.9659016 
  712000    2121.1614   -37.924634   -39.843906   -39.843906    1.9192715 
  713000    2096.4836   -38.017192   -39.914134   -39.914134    1.8969424 
  714000    2148.6884   -38.090232    -40.03441    -40.03441    1.9441784 
  715000    2100.1924   -37.680693   -39.580992   -39.580992    1.9002982 
  716000    2148.9797   -37.908787   -39.853229   -39.853229     1.944442 
  717000    2192.0108   -37.788771   -39.772148   -39.772148    1.9833775 
  718000    2160.6581   -37.850426   -39.805434   -39.805434    1.9550089 
  719000    2127.7346   -38.106883   -40.032102   -40.032102     1.925219 
  720000     2212.116   -37.931013   -39.932582   -39.932582    2.0015691 
  721000    2131.0849   -37.678607   -39.606858   -39.606858    1.9282504 
  722000    2193.3386   -38.175878   -40.160456   -40.160456    1.9845789 
  723000    2148.7162   -37.977412   -39.921616   -39.921616    1.9442036 
  724000    2223.0096   -37.675771   -39.687197   -39.687197    2.0114258 
  725000     2155.159   -37.893147    -39.84318    -39.84318    1.9500331 
  726000     2167.888   -38.053911   -40.015462   -40.015462    1.9615506 
  727000    2165.1935   -38.070636   -40.029749   -40.029749    1.9591126 
  728000    2200.7392   -38.112575    -40.10385    -40.10385    1.9912751 
  729000    2166.9127   -37.979403   -39.940071   -39.940071    1.9606681 
  730000    2189.5476   -37.819935   -39.801084   -39.801084    1.9811487 
  731000    2200.2684   -37.900034   -39.890883   -39.890883    1.9908491 
  732000    2221.5724   -37.895541   -39.905666   -39.905666    2.0101254 
  733000     2243.544   -37.912424   -39.942429   -39.942429    2.0300058 
  734000    2166.4957   -37.989299   -39.949589   -39.949589    1.9602909 
  735000    2253.9653   -37.831715   -39.871151   -39.871151    2.0394352 
  736000    2233.7383   -38.099221   -40.120354   -40.120354    2.0211334 
  737000    2193.1317    -37.92427   -39.908662   -39.908662    1.9843916 
  738000    2142.8404   -37.695646   -39.634533   -39.634533     1.938887 
  739000      2255.34   -37.791594   -39.832273   -39.832273    2.0406791 
  740000    2190.0447   -37.688618   -39.670216   -39.670216    1.9815985 
  741000    2281.0381   -37.894659   -39.958591   -39.958591    2.0639312 
  742000    2240.7766   -37.762552   -39.790054   -39.790054    2.0275017 
  743000    2307.4184   -37.643949    -39.73175    -39.73175    2.0878007 
  744000    2279.0397   -37.885999   -39.948122   -39.948122     2.062123 
  745000    2240.3285   -37.774875   -39.801971   -39.801971    2.0270963 
  746000    2208.5639   -37.763307   -39.761662   -39.761662     1.998355 
  747000    2243.5457   -37.978413    -40.00842    -40.00842    2.0300073 
  748000    2252.6378   -37.586934   -39.625168   -39.625168     2.038234 
  749000    2266.0732   -37.674584   -39.724974   -39.724974    2.0503907 
  750000    2247.4541   -37.475256     -39.5088     -39.5088    2.0335437 
  751000    2224.5191   -37.821111   -39.833902   -39.833902    2.0127916 
  752000    2238.6211   -37.698781   -39.724333   -39.724333    2.0255514 
  753000    2219.1954   -37.597279   -39.605253   -39.605253    2.0079746 
  754000    2284.2359   -37.629098   -39.695922   -39.695922    2.0668246 
  755000    2287.5781   -37.737039   -39.806887   -39.806887    2.0698488 
  756000    2301.9373   -37.727529    -39.81037    -39.81037    2.0828412 
  757000     2296.739   -37.642442    -39.72058    -39.72058    2.0781377 
  758000    2307.5552   -37.890322   -39.978247   -39.978247    2.0879245 
  759000    2297.4375   -37.344242   -39.423011   -39.423011    2.0787697 
  760000    2267.0451   -37.604443   -39.655713   -39.655713    2.0512701 
  761000    2244.1279   -37.289308   -39.319842   -39.319842    2.0305341 
  762000    2253.0198    -37.52124    -39.55982    -39.55982    2.0385797 
  763000     2318.205   -37.365017   -39.462578   -39.462578    2.0975606 
  764000     2287.959   -37.619786    -39.68998    -39.68998    2.0701934 
  765000    2338.9166   -37.098224   -39.214525   -39.214525    2.1163009 
  766000    2359.7025   -37.531023   -39.666131   -39.666131    2.1351084 
  767000    2255.4153   -37.601795   -39.642542   -39.642542    2.0407472 
  768000    2390.9935   -37.651568   -39.814989   -39.814989    2.1634212 
  769000    2332.5269    -37.92407   -40.034589   -40.034589    2.1105194 
  770000    2369.9093   -36.798726    -38.94307    -38.94307    2.1443437 
  771000     2242.642   -37.177843   -39.207033   -39.207033    2.0291896 
  772000    2317.3904    -37.73936   -39.836183   -39.836183    2.0968235 
  773000     2336.218   -37.808044   -39.921903   -39.921903    2.1138592 
  774000    2368.0133   -37.679029   -39.821657   -39.821657    2.1426282 
  775000    2332.4936    -37.76591   -39.876399   -39.876399    2.1104892 
  776000     2329.172   -37.296855   -39.404339   -39.404339    2.1074838 
  777000    2330.3292   -37.755075   -39.863606   -39.863606    2.1085308 
  778000    2327.5305   -37.833497   -39.939496   -39.939496    2.1059986 
  779000    2396.0354   -37.338661   -39.506644   -39.506644    2.1679831 
  780000    2326.6323   -37.365308   -39.470494   -39.470494    2.1051858 
  781000    2405.1475    -37.56247   -39.738698   -39.738698     2.176228 
  782000    2355.8264   -37.383257   -39.514858   -39.514858    2.1316012 
  783000    2295.4833   -37.857357   -39.934359   -39.934359    2.0770016 
  784000    2346.6113   -37.557987    -39.68125    -39.68125    2.1232633 
  785000    2346.9027   -37.412342   -39.535869   -39.535869    2.1235269 
  786000    2345.4941    -37.52293   -39.645183   -39.645183    2.1222524 
  787000    2353.5457   -37.329602   -39.459139   -39.459139    2.1295376 
  788000    2414.5617   -37.254565   -39.439311   -39.439311    2.1847461 
  789000    2380.3879   -37.465125    -39.61895    -39.61895     2.153825 
  790000    2429.1676   -37.579743   -39.777705   -39.777705    2.1979619 
  791000    2332.2012   -37.244398   -39.354623   -39.354623    2.1102246 
  792000    2336.4065   -37.754575   -39.868605   -39.868605    2.1140297 
  793000    2439.2179   -37.585573   -39.792628   -39.792628    2.2070556 
  794000     2399.009   -37.382897   -39.553571   -39.553571    2.1706738 
  795000    2429.8647    -37.25726   -39.455852   -39.455852    2.1985926 
  796000     2373.451   -37.362276   -39.509824   -39.509824    2.1475483 
  797000    2437.7159   -37.404154    -39.60985    -39.60985    2.2056966 
  798000    2339.6002   -37.418655   -39.535575   -39.535575    2.1169194 
  799000    2414.7809   -37.512606   -39.697551   -39.697551    2.1849445 
  800000    2415.1259   -37.268588   -39.453844   -39.453844    2.1852566 
  801000    2432.6556    -37.55191   -39.753028   -39.753028     2.201118 
  802000    2435.5032   -37.013835    -39.21753    -39.21753    2.2036945 
  803000    2429.3937   -37.151583    -39.34975    -39.34975    2.1981664 
  804000    2398.6449   -37.403334   -39.573678   -39.573678    2.1703443 
  805000    2439.0828   -37.302163   -39.509096   -39.509096    2.2069334 
  806000    2419.7523   -37.062745   -39.252188   -39.252188    2.1894427 
  807000    2467.3009   -37.544922   -39.777388   -39.777388    2.2324657 
  808000    2382.9605   -37.132947     -39.2891     -39.2891    2.1561528 
  809000    2534.6828   -37.744781   -40.038215   -40.038215    2.2934342 
  810000    2480.5264   -37.403911   -39.648343   -39.648343    2.2444324 
  811000    2486.7253    -37.34526   -39.595301   -39.595301    2.2500413 
  812000     2483.324   -36.986736     -39.2337     -39.2337    2.2469637 
  813000     2388.426   -37.341569   -39.502667   -39.502667    2.1610981 
  814000    2537.3116   -37.531859   -39.827672   -39.827672    2.2958128 
  815000    2470.0132   -37.467568   -39.702488   -39.702488    2.2349198 
  816000    2366.1722   -37.666078    -39.80704    -39.80704    2.1409624 
  817000    2473.8407   -37.314757    -39.55314    -39.55314    2.2383831 
  818000    2396.0664   -37.058869    -39.22688    -39.22688    2.1680112 
  819000    2415.9488   -37.147812   -39.333813   -39.333813    2.1860012 
  820000    2380.5418   -37.380894   -39.534858   -39.534858    2.1539643 
  821000    2434.5831   -36.972093   -39.174955   -39.174955     2.202862 
  822000    2425.1831   -37.451201   -39.645558   -39.645558    2.1943567 
  823000    2504.1045   -37.291331   -39.557097   -39.557097    2.2657664 
  824000    2466.2152   -36.833652   -39.065135   -39.065135    2.2314834 
  825000    2479.0405   -37.419132    -39.66222    -39.66222    2.2430879 
  826000    2468.4766   -37.417553   -39.651082   -39.651082    2.2335295 
  827000    2535.3186   -37.331083   -39.625093   -39.625093    2.2940096 
  828000    2396.1317   -37.522205   -39.690276   -39.690276    2.1680703 
  829000    2438.0512   -37.326859   -39.532859   -39.532859        2.206 
  830000    2463.2215   -37.205524   -39.434299   -39.434299    2.2287745 
  831000    2452.3306   -37.708347   -39.927267   -39.927267    2.2189203 
  832000    2496.2277   -37.719083   -39.977722   -39.977722    2.2586392 
  833000    2508.9198   -37.049531   -39.319655   -39.319655    2.2701233 
  834000    2505.8112   -37.591374   -39.858684   -39.858684    2.2673107 
  835000    2423.0058   -37.525949   -39.718335   -39.718335    2.1923866 
  836000    2550.3227   -37.002169   -39.309755   -39.309755    2.3075855 
  837000    2576.5951   -37.106123   -39.437481   -39.437481    2.3313574 
  838000    2506.4832   -37.429506   -39.697424   -39.697424    2.2679187 
  839000    2559.3345   -36.867546   -39.183286   -39.183286    2.3157396 
  840000      2623.04   -36.748299   -39.121681   -39.121681    2.3733817 
  841000    2476.4147   -37.168449   -39.409161   -39.409161     2.240712 
  842000     2566.884   -37.121537   -39.444108   -39.444108    2.3225706 
  843000    2552.3496   -37.336104   -39.645524   -39.645524    2.3094196 
  844000    2557.2684   -36.634852   -38.948723   -38.948723    2.3138702 
  845000    2496.3699    -37.43956   -39.698328   -39.698328     2.258768 
  846000    2381.0888   -37.053884   -39.208343   -39.208343    2.1544592 
  847000    2515.6969   -37.371006   -39.647262   -39.647262    2.2762555 
  848000    2643.3809   -36.785762   -39.177549   -39.177549    2.3917865 
  849000    2547.2043   -37.088107   -39.392871   -39.392871     2.304764 
  850000     2500.578   -37.248448   -39.511024   -39.511024    2.2625756 
  851000    2522.4418   -37.389938   -39.672296   -39.672296    2.2823583 
  852000    2519.2554   -37.202178   -39.481653   -39.481653    2.2794752 
  853000    2559.6584   -36.861594   -39.177626   -39.177626    2.3160327 
  854000    2544.7719   -37.234778   -39.537341   -39.537341    2.3025631 
  855000    2564.6242   -37.068526   -39.389052   -39.389052    2.3205259 
  856000    2582.2549   -37.103989   -39.440467   -39.440467    2.3364785 
  857000     2564.745   -37.261518   -39.582153   -39.582153    2.3206351 
  858000    2570.6523   -37.159046   -39.485026   -39.485026    2.3259802 
  859000    2556.0606   -37.183569   -39.496346   -39.496346    2.3127774 
  860000    2530.8871   -36.856125   -39.146125   -39.146125    2.2899998 
  861000    2527.8563   -36.937838   -39.225095   -39.225095    2.2872575 
  862000     2598.396   -37.197649   -39.548732   -39.548732    2.3510833 
  863000    2560.6686   -37.078103   -39.395049   -39.395049    2.3169468 
  864000    2572.9439   -37.171667   -39.499721   -39.499721    2.3280537 
  865000    2577.1917    -36.86922   -39.201118   -39.201118    2.3318972 
  866000    2573.7331   -37.078576   -39.407343   -39.407343    2.3287678 
  867000    2630.3804   -36.872631   -39.252654   -39.252654    2.3800235 
  868000    2669.1725   -36.929262   -39.344386   -39.344386    2.4151233 
  869000    2577.0064   -36.858578   -39.190308   -39.190308    2.3317295 
  870000    2529.7947   -36.453674   -38.742686   -38.742686    2.2890114 
  871000    2586.8414   -37.063258   -39.403887   -39.403887    2.3406285 
  872000    2650.2108   -36.894985   -39.292951   -39.292951    2.3979664 
  873000    2698.0591   -36.755622   -39.196882   -39.196882    2.4412606 
  874000     2577.271   -36.875882   -39.207851   -39.207851    2.3319689 
  875000      2673.72   -36.586168   -39.005406   -39.005406     2.419238 
  876000    2696.2216   -36.466164   -38.905762   -38.905762     2.439598 
  877000    2743.0827   -36.462254   -38.944253   -38.944253    2.4819988 
  878000    2612.9989    -37.01781   -39.382106   -39.382106    2.3642964 
  879000    2621.9689   -36.799318   -39.171731   -39.171731    2.3724125 
  880000    2649.6992   -37.028967   -39.426471   -39.426471    2.3975035 
  881000    2720.4917   -37.108381   -39.569939   -39.569939    2.4615581 
  882000     2638.782   -36.482945   -38.870571   -38.870571    2.3876254 
  883000    2579.6336   -37.343446   -39.677553   -39.677553    2.3341067 
  884000    2590.0298   -37.347566    -39.69108    -39.69108    2.3435134 
  885000    2601.6956   -36.812435   -39.166504   -39.166504    2.3540688 
  886000    2615.3409   -36.933442   -39.299857   -39.299857    2.3664154 
  887000    2720.1275   -37.086975   -39.548204   -39.548204    2.4612285 
  888000    2820.7785   -36.843334   -39.395634   -39.395634    2.5522997 
  889000    2669.9115   -36.926784   -39.342576   -39.342576    2.4157921 
  890000    2631.1836   -37.045368   -39.426118   -39.426118    2.3807502 
  891000    2514.0263     -36.7562   -39.030944   -39.030944    2.2747438 
  892000    2688.0121   -37.479272   -39.911442   -39.911442    2.4321698 
  893000    2697.6263   -37.528783   -39.969652   -39.969652     2.440869 
  894000    2679.8677     -37.3617   -39.786501   -39.786501    2.4248007 
  895000    2606.3412   -37.232936   -39.591209   -39.591209    2.3582723 
  896000    2673.1811   -36.354828   -38.773578   -38.773578    2.4187505 
  897000    2684.8213   -37.206222   -39.635505   -39.635505    2.4292827 
  898000    2652.6447   -37.476101    -39.87627    -39.87627    2.4001686 
  899000    2683.4838   -36.617173   -39.045246   -39.045246    2.4280725 
  900000    2735.5189   -36.101413   -38.576568   -38.576568     2.475155 
  901000    2655.3033   -36.834431   -39.237005   -39.237005    2.4025742 
  902000    2673.0627   -36.687473   -39.106116   -39.106116    2.4186433 
  903000    2704.0206   -36.977212   -39.423866   -39.423866    2.4466547 
  904000    2730.6589   -37.238161   -39.708918   -39.708918    2.4707576 
  905000    2802.3614   -37.296703   -39.832338   -39.832338    2.5356354 
  906000    2711.4939   -36.935417   -39.388834   -39.388834    2.4534167 
  907000    2736.1202   -37.143209   -39.618908   -39.618908    2.4756991 
  908000    2786.0339   -37.075063   -39.595925   -39.595925     2.520862 
  909000    2723.1472   -36.797741   -39.261702   -39.261702    2.4639608 
  910000    2693.8915   -36.796224   -39.233714   -39.233714    2.4374896 
  911000    2638.8958   -37.024824   -39.412553   -39.412553    2.3877284 
  912000    2602.6136   -36.912992   -39.267891   -39.267891    2.3548995 
  913000    2738.8016   -37.258296   -39.736422   -39.736422    2.4781253 
  914000    2798.0761   -37.074572    -39.60633    -39.60633    2.5317581 
  915000    2747.7097   -37.088138   -39.574324   -39.574324    2.4861855 
  916000    2768.6219   -37.032065   -39.537173   -39.537173    2.5051073 
  917000      2739.64   -37.240734   -39.719618   -39.719618    2.4788839 
  918000    2688.2125   -36.405636   -38.837987   -38.837987    2.4323512 
  919000    2764.0784   -37.525634    -40.02663    -40.02663    2.5009963 
  920000    2740.7561   -37.220178   -39.700071   -39.700071    2.4798937 
  921000    2795.6919   -36.890208   -39.419809   -39.419809    2.5296008 
  922000    2765.6365   -36.753889   -39.256295   -39.256295     2.502406 
  923000    2736.4316   -37.041893   -39.517873   -39.517873    2.4759808 
  924000    2724.7688   -36.729517   -39.194945   -39.194945    2.4654281 
  925000    2845.2152   -36.601233   -39.175644   -39.175644    2.5744105 
  926000    2783.7067   -36.455449   -38.974205   -38.974205    2.5187563 
  927000    2783.2271   -36.633409   -39.151731   -39.151731    2.5183224 
  928000    2893.0459   -37.108872   -39.726561   -39.726561    2.6176887 
  929000    2844.8208   -36.524992   -39.099046   -39.099046    2.5740536 
  930000    2809.7574   -37.081661   -39.623988   -39.623988    2.5423275 
  931000    2909.3112   -36.824718   -39.457124   -39.457124    2.6324059 
  932000    2768.6843   -36.665884   -39.171048   -39.171048    2.5051637 
  933000    2879.8584    -37.28372   -39.889477   -39.889477    2.6057564 
  934000    2817.1907   -36.870327    -39.41938    -39.41938    2.5490533 
  935000    2721.5504   -36.873291   -39.335807   -39.335807     2.462516 
  936000    2842.8247   -37.112277   -39.684524   -39.684524    2.5722476 
  937000    2855.3581   -37.106153   -39.689741   -39.689741     2.583588 
  938000    2780.0047   -35.765032   -38.280438   -38.280438    2.5154067 
  939000    2858.3515   -36.455911   -39.042207   -39.042207    2.5862965 
  940000    2817.6708   -37.061128   -39.610615   -39.610615    2.5494878 
  941000    2763.6116   -37.132646    -39.63322    -39.63322    2.5005739 
  942000    2817.5759   -36.120251   -38.669653   -38.669653    2.5494019 
  943000    2667.4564   -36.511983   -38.925553   -38.925553    2.4135706 
  944000    2736.6737   -36.470926   -38.947126   -38.947126    2.4761999 
  945000    2933.4524   -36.705944   -39.360193   -39.360193    2.6542494 
  946000    2805.1605   -36.521134   -39.059302   -39.059302    2.5381682 
  947000    2827.1977   -36.537355   -39.095462   -39.095462    2.5581079 
  948000    2746.5697   -36.945649   -39.430803   -39.430803     2.485154 
  949000    2848.5519   -37.216514   -39.793943   -39.793943    2.5774296 
  950000     2938.063   -36.386695   -39.045116   -39.045116    2.6584212 
  951000    2909.4898   -36.588635   -39.221202   -39.221202    2.6325675 
  952000    2888.0802   -36.961146   -39.574342   -39.574342    2.6131957 
  953000    2851.4588   -36.843806   -39.423865   -39.423865    2.5800599 
  954000    2819.6098   -36.209494   -38.760737   -38.760737    2.5512422 
  955000    2806.1428   -36.239772   -38.778829   -38.778829    2.5390569 
  956000    2819.4975   -36.438948   -38.990088   -38.990088    2.5511406 
  957000    2879.3043   -36.664328   -39.269583   -39.269583     2.605255 
  958000    2819.5526   -36.745347   -39.296537   -39.296537    2.5511904 
  959000    2967.2461   -36.421461   -39.106288   -39.106288    2.6848266 
  960000    2811.0825   -36.507746   -39.051273   -39.051273    2.5435265 
  961000    2904.5546   -36.739854   -39.367956   -39.367956     2.628102 
  962000    2868.3873   -37.086023     -39.6814     -39.6814    2.5953771 
  963000    2934.0093   -36.553516    -39.20827    -39.20827    2.6547532 
  964000    2881.4596   -36.785365    -39.39257    -39.39257    2.6072052 
  965000    2927.2046   -36.163796   -38.812392   -38.812392    2.6485962 
  966000    3036.8934    -36.38293   -39.130775   -39.130775     2.747845 
  967000    2918.5147   -36.254886   -38.895619   -38.895619    2.6407334 
  968000     2863.879   -36.439116   -39.030414   -39.030414    2.5912979 
  969000    2917.1008   -36.493519   -39.132973   -39.132973    2.6394541 
  970000     2927.703   -35.900876   -38.549924   -38.549924    2.6490472 
  971000    2893.5029   -36.021183   -38.639285   -38.639285    2.6181022 
  972000    2965.0553   -36.136978   -38.819823   -38.819823    2.6828443 
  973000     2972.139    -36.30517   -38.994424   -38.994424    2.6892539 
  974000    2951.0897   -36.539238   -39.209446   -39.209446     2.670208 
  975000    3059.9764   -34.958444   -37.727175   -37.727175    2.7687309 
  976000    3031.9687   -35.399098   -38.142487   -38.142487     2.743389 
  977000    2843.4465   -36.543576   -39.116386   -39.116386    2.5728101 
  978000    2791.6935   -36.795427    -39.32141    -39.32141    2.5259829 
  979000    2938.1662   -36.722508   -39.381023   -39.381023    2.6585145 
  980000      2957.62   -36.065459   -38.741575   -38.741575    2.6761168 
  981000    2968.4613   -36.816166   -39.502093   -39.502093    2.6859262 
  982000    2912.6395   -36.647406   -39.282823   -39.282823    2.6354174 
  983000    2952.7178   -36.783006   -39.454687   -39.454687    2.6716811 
  984000    3018.3892   -36.696554   -39.427656   -39.427656     2.731102 
  985000    2973.0549   -36.919311   -39.609393   -39.609393    2.6900825 
  986000    3024.5678   -36.342537    -39.07923    -39.07923    2.7366925 
  987000    2901.9724   -36.626144   -39.251909   -39.251909    2.6257656 
  988000    2933.0657   -36.439553   -39.093452   -39.093452    2.6538994 
  989000    2845.5647    -36.79047   -39.365197   -39.365197    2.5747268 
  990000    2924.5617    -36.27604   -38.922245   -38.922245    2.6462049 
  991000    3127.8782    -36.57256    -39.40273    -39.40273    2.8301699 
  992000    2906.3433   -36.552169    -39.18189    -39.18189    2.6297205 
  993000    3083.5816   -36.547411   -39.337501   -39.337501    2.7900894 
  994000    3075.7258   -36.531128    -39.31411    -39.31411    2.7829814 
  995000    2928.2589   -36.988069   -39.637619   -39.637619    2.6495502 
  996000    2930.6361   -35.977299   -38.629001   -38.629001    2.6517012 
  997000    3000.7698   -36.548744   -39.263903   -39.263903    2.7151596 
  998000    2956.7472   -35.910271   -38.585598   -38.585598     2.675327 
  999000    3025.8464   -36.546754   -39.284604   -39.284604    2.7378494 
 1000000    2928.6259    -36.01063   -38.660513   -38.660513    2.6498823 
Loop time of 46.8104 on 1 procs for 1000000 steps with 8 atoms

Performance: 184.574 ns/day, 0.130 hours/ns, 21362.765 timesteps/s
98.8% CPU use with 1 MPI tasks x 1 OpenMP threads

MPI task timing breakdown:
Section |  min time  |  avg time  |  max time  |%varavg| %total
---------------------------------------------------------------
Pair    | 34.798     | 34.798     | 34.798     |   0.0 | 74.34
Neigh   | 4.6639     | 4.6639     | 4.6639     |   0.0 |  9.96
Comm    | 2.0681     | 2.0681     | 2.0681     |   0.0 |  4.42
Output  | 0.57334    | 0.57334    | 0.57334    |   0.0 |  1.22
Modify  | 3.6893     | 3.6893     | 3.6893     |   0.0 |  7.88
Other   |            | 1.017      |            |       |  2.17

Nlocal:        8.00000 ave           8 max           8 min
Histogram: 1 0 0 0 0 0 0 0 0 0
Nghost:        136.000 ave         136 max         136 min
Histogram: 1 0 0 0 0 0 0 0 0 0
Neighs:         0.00000 ave           0 max           0 min
Histogram: 1 0 0 0 0 0 0 0 0 0
FullNghs:      96.0000 ave          96 max          96 min
Histogram: 1 0 0 0 0 0 0 0 0 0

Total # of neighbors = 96
Ave neighs/atom = 12.000000
Neighbor list builds = 18126
Dangerous builds = 0
write_restart 	./endconf/endconf*1.restart
System init for write_restart ...

#==============Constant Temp Phase==================

# Minimize during the constant temperature phase
min_style       sd
minimize        1.0e-5 1.0e-7 500 1000
Per MPI rank memory allocation (min/avg/max) = 6.254 | 6.254 | 6.254 Mbytes
[...]
 1853000    754.17165    -39.50808   -40.190471   -40.190471   0.68239036 
 1854000    752.36559   -39.503937   -40.184694   -40.184694    0.6807562 
 1855000    744.98237   -39.602321   -40.276397   -40.276397    0.6740757 
 1856000    750.40387   -39.559931   -40.238912   -40.238912   0.67898119 
 1857000    727.09213   -39.541058   -40.198946   -40.198946   0.65788824 
 1858000    734.50665   -39.551588   -40.216185   -40.216185   0.66459705 
 1859000    726.35818    -39.58373   -40.240954   -40.240954   0.65722414 
 1860000    717.05283   -39.550374   -40.199179   -40.199179   0.64880447 
 1861000    727.59619   -39.631254   -40.289598   -40.289598   0.65834432 
 1862000    732.19129   -39.593805   -40.256307   -40.256307   0.66250207 
 1863000    714.55078   -39.582472   -40.229012   -40.229012   0.64654056 
 1864000    689.30853   -39.551685   -40.175386   -40.175386   0.62370085 
 1865000     720.0302   -39.541301   -40.192799   -40.192799   0.65149846 
 1866000    705.25454   -39.603916   -40.242045   -40.242045   0.63812913 
 1867000    711.48076   -39.579577    -40.22334    -40.22334   0.64376274 
 1868000    692.96522   -39.620875   -40.247884   -40.247884   0.62700949 
 1869000    682.05569   -39.592563   -40.209701   -40.209701   0.61713832 
 1870000    692.89679   -39.592499   -40.219447   -40.219447   0.62694758 
 1871000    681.29707   -39.576593   -40.193045   -40.193045    0.6164519 
 1872000    682.57451   -39.564787   -40.182395   -40.182395   0.61760776 
 1873000    688.53086   -39.607759   -40.230757   -40.230757   0.62299719 
 1874000    665.46624   -39.526137   -40.128265   -40.128265   0.60212783 
 1875000    676.64129    -39.62793    -40.24017    -40.24017   0.61223926 
 1876000    676.20413   -39.566906    -40.17875    -40.17875    0.6118437 
 1877000    672.07445   -39.562222   -40.170329   -40.170329   0.60810708 
 1878000    675.94247   -39.538516   -40.150123   -40.150123   0.61160695 
 1879000    668.30544   -39.622691   -40.227387   -40.227387    0.6046968 
 1880000     659.6896   -39.592281   -40.189182   -40.189182   0.59690101 
 1881000    655.13666   -39.531768   -40.124549   -40.124549   0.59278142 
 1882000    642.77331   -39.555918   -40.137513   -40.137513    0.5815948 
 1883000    657.53338   -39.551242   -40.146192   -40.146192   0.59495002 
 1884000    657.86783    -39.55877   -40.154023   -40.154023   0.59525264 
 1885000    647.27596   -39.672301    -40.25797    -40.25797    0.5856689 
 1886000    662.49991   -39.558833   -40.158277   -40.158277   0.59944384 
 1887000    635.89351   -39.656003   -40.231372   -40.231372   0.57536981 
 1888000    643.66617   -39.721881   -40.304283   -40.304283   0.58240268 
 1889000    632.77907   -39.659384   -40.231936   -40.231936    0.5725518 
 1890000    628.63341   -39.743837   -40.312637   -40.312637   0.56880072 
 1891000    628.86525    -39.68413   -40.253141   -40.253141   0.56901049 
 1892000    628.58966   -39.620607   -40.189368   -40.189368   0.56876114 
 1893000    600.99695   -39.615452   -40.159247   -40.159247   0.54379467 
 1894000    624.14312   -39.501378   -40.066115   -40.066115   0.56473781 
 1895000    624.80139   -39.587225   -40.152559   -40.152559   0.56533343 
 1896000    625.32606   -39.668996   -40.234804   -40.234804   0.56580816 
 1897000    602.51091   -39.643078   -40.188243   -40.188243   0.54516453 
 1898000    604.96003   -39.645508   -40.192889   -40.192889   0.54738055 
 1899000    604.57287   -39.612628   -40.159658   -40.159658   0.54703024 
 1900000     605.3563   -39.671225   -40.218965   -40.218965   0.54773911 
 1901000    592.37589   -39.650537   -40.186532   -40.186532   0.53599415 
 1902000    595.04065   -39.580836   -40.119242   -40.119242   0.53840528 
 1903000     591.6044   -39.623866   -40.159162   -40.159162   0.53529609 
 1904000    573.56272   -39.661127   -40.180098   -40.180098    0.5189716 
 1905000    598.18128   -39.680706   -40.221953   -40.221953   0.54124699 
 1906000     556.3776    -39.73243   -40.235852   -40.235852   0.50342214 
 1907000    585.31861   -39.730633   -40.260241   -40.260241   0.52960858 
 1908000    563.94338   -39.722631   -40.232899   -40.232899   0.51026782 
 1909000    566.90905   -39.699497   -40.212448   -40.212448   0.51295123 
 1910000     562.6469   -39.746225    -40.25532    -40.25532   0.50909474 
 1911000     568.1133   -39.796755   -40.310795   -40.310795   0.51404085 
 1912000    554.20077   -39.726612   -40.228065   -40.228065   0.50145251 
 1913000    548.06182   -39.736689   -40.232587   -40.232587   0.49589786 
 1914000    552.31272   -39.693649   -40.193393   -40.193393   0.49974415 
 1915000    565.67015   -39.749124   -40.260954   -40.260954   0.51183024 
 1916000    547.28276   -39.795647    -40.29084    -40.29084   0.49519294 
 1917000    551.79692   -39.755303    -40.25458    -40.25458   0.49927745 
 1918000    553.05879   -39.787811    -40.28823    -40.28823   0.50041922 
 1919000    545.72974   -39.758355   -40.252142   -40.252142   0.49378774 
 1920000    534.05583   -39.754417   -40.237642   -40.237642   0.48322494 
 1921000    540.20269   -39.805156   -40.293943   -40.293943   0.48878674 
 1922000    538.57408   -39.770315   -40.257629   -40.257629   0.48731314 
 1923000    533.63898   -39.827386   -40.310234   -40.310234   0.48284776 
 1924000    532.75703   -39.863486   -40.345536   -40.345536   0.48204975 
 1925000    530.77659   -39.767987   -40.248245   -40.248245   0.48025781 
 1926000    525.61261   -39.859788   -40.335373   -40.335373   0.47558534 
 1927000    526.76498   -39.816307   -40.292935   -40.292935   0.47662803 
 1928000    520.88878   -39.827625   -40.298936   -40.298936   0.47131112 
 1929000    518.96031   -39.846372   -40.315938   -40.315938   0.46956619 
 1930000      506.706   -39.841261   -40.299739   -40.299739   0.45847824 
 1931000    505.09364   -39.868762   -40.325781   -40.325781   0.45701934 
 1932000    505.37238   -39.821551   -40.278823   -40.278823   0.45727155 
 1933000      500.905   -39.862407   -40.315636   -40.315636   0.45322937 
 1934000    503.00795   -39.828787   -40.283919   -40.283919   0.45513216 
 1935000    491.16196    -39.87937   -40.323784   -40.323784   0.44441367 
 1936000     485.4626   -39.837544   -40.276801   -40.276801   0.43925676 
 1937000    495.92517   -39.872172   -40.320896   -40.320896   0.44872352 
 1938000    489.53745    -39.83618   -40.279124   -40.279124   0.44294377 
 1939000    486.88079   -39.914122   -40.354662   -40.354662   0.44053997 
 1940000    479.55417   -39.856354   -40.290265   -40.290265   0.43391069 
 1941000    471.65225   -39.911207   -40.337968   -40.337968   0.42676087 
 1942000    475.16559   -39.906695   -40.336635   -40.336635   0.42993981 
 1943000    470.19915   -39.907254   -40.332701   -40.332701   0.42544607 
 1944000    469.69947   -39.877008   -40.302001   -40.302001   0.42499396 
 1945000    460.28834   -39.919887   -40.336365   -40.336365   0.41647856 
 1946000    457.44341   -39.915937   -40.329841   -40.329841   0.41390441 
 1947000    458.29033   -39.901958   -40.316629   -40.316629   0.41467072 
 1948000    456.87825   -39.894731   -40.308124   -40.308124   0.41339304 
 1949000    445.91632   -39.892679   -40.296153   -40.296153   0.40347446 
 1950000    449.52734   -39.898062   -40.304803   -40.304803   0.40674178 
 1951000    449.13075    -39.88705   -40.293433   -40.293433   0.40638294 
 1952000    441.52121   -39.917317   -40.316814   -40.316814   0.39949767 
 1953000    437.92909   -39.942103    -40.33835    -40.33835   0.39624744 
 1954000    438.81585   -39.939373   -40.336423   -40.336423    0.3970498 
 1955000    430.04895   -39.905429   -40.294546   -40.294546   0.38911733 
 1956000    429.79801   -39.947289    -40.33618    -40.33618   0.38889027 
 1957000    428.99421   -39.940912   -40.329075   -40.329075   0.38816298 
 1958000    423.46571   -39.930671   -40.313832   -40.313832   0.38316068 
 1959000    422.19232   -39.949433   -40.331442   -40.331442   0.38200848 
 1960000    420.37368   -39.935824   -40.316187   -40.316187   0.38036294 
 1961000    409.30375   -39.953723   -40.324069   -40.324069   0.37034663 
 1962000    412.78409   -39.963945    -40.33744    -40.33744   0.37349572 
 1963000    409.91046   -39.961473   -40.332369   -40.332369    0.3708956 
 1964000    407.88454   -39.948426   -40.317489   -40.317489    0.3690625 
 1965000    403.12264   -39.975689   -40.340443   -40.340443   0.36475384 
 1966000    403.97227   -39.978562   -40.344085   -40.344085    0.3655226 
 1967000    398.80569   -39.967407   -40.328254   -40.328254   0.36084777 
 1968000    401.34586   -39.977436   -40.340583   -40.340583   0.36314617 
 1969000    391.83653   -39.988832   -40.343374   -40.343374   0.35454193 
 1970000    390.88875   -39.995082   -40.348766   -40.348766   0.35368436 
 1971000    384.58587   -40.004574   -40.352555   -40.352555   0.34798138 
 1972000     382.4861   -40.008759    -40.35484    -40.35484   0.34608146 
 1973000    383.78108   -39.997272   -40.344525   -40.344525   0.34725318 
 1974000    380.72414   -40.012188   -40.356675   -40.356675   0.34448721 
 1975000    379.65882   -40.015192   -40.358716   -40.358716   0.34352328 
 1976000    371.04796   -40.017399   -40.353131   -40.353131   0.33573199 
 1977000    373.63256   -40.014732   -40.352803   -40.352803   0.33807059 
 1978000    369.90971   -40.008788    -40.34349    -40.34349   0.33470208 
 1979000    362.73953   -40.008461   -40.336675   -40.336675   0.32821435 
 1980000    358.72048   -40.001645   -40.326223   -40.326223   0.32457783 
 1981000    356.80699   -40.021252   -40.344099   -40.344099   0.32284646 
 1982000    352.59014   -40.010824   -40.329855   -40.329855   0.31903097 
 1983000    349.63727   -40.028597   -40.344956   -40.344956   0.31635915 
 1984000    346.70907   -40.026367   -40.340076   -40.340076   0.31370965 
 1985000    346.18886   -40.046175   -40.359414   -40.359414   0.31323896 
 1986000    342.87974   -40.047289   -40.357534   -40.357534    0.3102448 
 1987000    338.31113    -40.05324   -40.359352   -40.359352   0.30611102 
 1988000    332.43918   -40.055623   -40.356421   -40.356421   0.30079796 
 1989000    332.40722   -40.036419   -40.337188   -40.337188   0.30076904 
 1990000    328.85844   -40.025859   -40.323417   -40.323417   0.29755802 
 1991000    329.07565   -40.031001   -40.328755   -40.328755   0.29775457 
 1992000    325.44758   -40.051534   -40.346006   -40.346006   0.29447181 
 1993000    320.62088   -40.034865   -40.324969   -40.324969   0.29010451 
 1994000    317.48543   -40.069622    -40.35689    -40.35689   0.28726749 
 1995000    313.02052   -40.067283   -40.350511   -40.350511   0.28322755 
 1996000    313.04776   -40.064936   -40.348189   -40.348189   0.28325219 
 1997000      313.647   -40.058129   -40.341924   -40.341924   0.28379439 
 1998000    306.56548   -40.063727   -40.341114   -40.341114   0.27738689 
 1999000    301.01627   -40.049947   -40.322313   -40.322313   0.27236585 
 2000000    301.42309   -40.055922   -40.328656   -40.328656   0.27273395 
 2001000    295.33755   -40.069938   -40.337166   -40.337166   0.26722762 
 2002000    292.78481   -40.078731   -40.343649   -40.343649   0.26491785 
 2003000    293.95321   -40.089081   -40.355056   -40.355056   0.26597505 
 2004000    288.69364   -40.087588   -40.348804   -40.348804   0.26121608 
 2005000    287.02298   -40.076213   -40.335917   -40.335917   0.25970442 
 2006000    281.55747   -40.085721    -40.34048    -40.34048   0.25475911 
 2007000    276.68665   -40.080792   -40.331144   -40.331144   0.25035189 
 2008000    278.57576   -40.115588    -40.36765    -40.36765    0.2520612 
 2009000    273.86245   -40.116233   -40.364029   -40.364029    0.2477965 
 2010000    269.50014    -40.09784    -40.34169    -40.34169   0.24384939 
 2011000    269.68515   -40.095105   -40.339121   -40.339121   0.24401679 
 2012000    262.70487   -40.116647   -40.354348   -40.354348   0.23770089 
 2013000     258.6899   -40.136706   -40.370774   -40.370774   0.23406806 
 2014000    260.79863   -40.123321   -40.359297   -40.359297   0.23597608 
 2015000    254.16954   -40.110749   -40.340727   -40.340727   0.22997794 
 2016000    254.21244   -40.126176   -40.356193   -40.356193   0.23001676 
 2017000    248.92478   -40.140023   -40.365255   -40.365255   0.22523238 
 2018000    246.28449   -40.146954   -40.369797   -40.369797   0.22284339 
 2019000    242.87522   -40.135171    -40.35493    -40.35493   0.21975861 
 2020000     241.6474   -40.125093    -40.34374    -40.34374   0.21864764 
 2021000    236.30333   -40.147059   -40.360871   -40.360871   0.21381221 
 2022000    234.31845   -40.168507   -40.380523   -40.380523   0.21201625 
 2023000    232.07681    -40.14896   -40.358948   -40.358948   0.20998797 
 2024000    228.47868   -40.143883   -40.350615   -40.350615   0.20673231 
 2025000    224.00148   -40.158171   -40.360852   -40.360852   0.20268125 
 2026000    221.14676   -40.169334   -40.369432   -40.369432   0.20009824 
 2027000    217.84479   -40.152546   -40.349657   -40.349657   0.19711054 
 2028000     213.2372   -40.136245   -40.329186   -40.329186    0.1929415 
 2029000    213.72915   -40.164292   -40.357679   -40.357679   0.19338663 
 2030000    210.45216    -40.17088   -40.361302   -40.361302   0.19042154 
 2031000    210.09907   -40.134581   -40.324683   -40.324683   0.19010206 
 2032000    201.71854   -40.170276   -40.352795   -40.352795   0.18251918 
 2033000    199.95829   -40.184017   -40.364944   -40.364944   0.18092646 
 2034000    198.03652   -40.147332   -40.326519   -40.326519    0.1791876 
 2035000    193.28114   -40.163972   -40.338857   -40.338857   0.17488483 
 2036000     192.4265    -40.19413   -40.368241   -40.368241   0.17411154 
 2037000    188.08818   -40.162561   -40.332748   -40.332748   0.17018614 
 2038000    184.03632   -40.184497   -40.351017   -40.351017   0.16651993 
 2039000    184.02943   -40.197163   -40.363677   -40.363677   0.16651369 
 2040000    178.26716   -40.167888   -40.329187   -40.329187   0.16129987 
 2041000    177.38221   -40.202759   -40.363258   -40.363258   0.16049915 
 2042000    177.72062   -40.189139   -40.349944   -40.349944   0.16080535 
 2043000    169.97075   -40.184751   -40.338544   -40.338544    0.1537931 
 2044000     168.0487   -40.218464   -40.370518   -40.370518   0.15205399 
 2045000    165.05143    -40.18886   -40.338202   -40.338202     0.149342 
 2046000    162.32931   -40.190758   -40.337637   -40.337637   0.14687897 
 2047000    158.35628    -40.21505   -40.358334   -40.358334   0.14328409 
 2048000    157.23526   -40.208883   -40.351153   -40.351153   0.14226976 
 2049000    151.81032   -40.230066   -40.367427   -40.367427   0.13736117 
 2050000    151.47218    -40.19904   -40.336095   -40.336095   0.13705521 
 2051000    146.16037   -40.220177   -40.352426   -40.352426   0.13224898 
 2052000     144.4764    -40.23615   -40.366876   -40.366876   0.13072528 
 2053000    142.71831   -40.216969   -40.346103   -40.346103   0.12913453 
 2054000    139.32025   -40.239528   -40.365587   -40.365587   0.12605989 
 2055000    137.05215   -40.220843   -40.344851   -40.344851   0.12400766 
 2056000    129.85844   -40.248287   -40.365786   -40.365786   0.11749865 
 2057000    134.63427   -40.219317   -40.341137   -40.341137   0.12181992 
 2058000    124.81249   -40.251535   -40.364468   -40.364468   0.11293296 
 2059000    124.33332   -40.237265   -40.349765   -40.349765    0.1124994 
 2060000    120.55993   -40.254361   -40.363446   -40.363446   0.10908516 
 2061000    121.69019   -40.241793   -40.351901   -40.351901   0.11010784 
 2062000    113.27235   -40.258839   -40.361331   -40.361331    0.1024912 
 2063000    111.10511    -40.25808    -40.35861    -40.35861   0.10053024 
 2064000    108.34611    -40.27205   -40.370084   -40.370084  0.098033841 
 2065000    106.59159   -40.254789   -40.351236   -40.351236  0.096446311 
 2066000    102.70762   -40.281227   -40.374159   -40.374159  0.092932015 
 2067000    100.15882   -40.271181   -40.361807   -40.361807  0.090625807 
 2068000    95.372295   -40.280739   -40.367033   -40.367033  0.086294857 
 2069000    94.964783   -40.264781   -40.350707   -40.350707  0.085926131 
 2070000    89.069914     -40.2942   -40.374792   -40.374792   0.08059233 
 2071000    86.679088   -40.273314   -40.351743   -40.351743  0.078429061 
 2072000    84.142648   -40.301114   -40.377248   -40.377248  0.076134036 
 2073000    80.712938   -40.272954   -40.345984   -40.345984  0.073030763 
 2074000    78.030725   -40.301815   -40.372419   -40.372419   0.07060384 
 2075000    75.852571     -40.2995   -40.368133   -40.368133  0.068633001 
 2076000    72.693027   -40.297136    -40.36291    -40.36291  0.065774179 
 2077000    69.575305   -40.317032   -40.379985   -40.379985  0.062953198 
 2078000     67.60138   -40.284718   -40.345885   -40.345885  0.061167149 
 2079000    63.425319   -40.317084   -40.374473   -40.374473  0.057388561 
 2080000    61.084879   -40.316505   -40.371776   -40.371776  0.055270882 
 2081000    57.124716   -40.307451   -40.359139   -40.359139  0.051687643 
 2082000    53.713758    -40.33279   -40.381391   -40.381391  0.048601337 
 2083000    51.391626   -40.313809   -40.360309   -40.360309  0.046500223 
 2084000    48.483948   -40.314177   -40.358046   -40.358046  0.043869295 
 2085000     45.50974   -40.339844   -40.381022   -40.381022   0.04117817 
 2086000    41.596349   -40.332466   -40.370103   -40.370103   0.03763725 
 2087000    39.690642   -40.326285   -40.362197   -40.362197  0.035912927 
 2088000    36.098785   -40.350599   -40.383262   -40.383262  0.032662939 
 2089000    32.869561   -40.343981   -40.373723   -40.373723  0.029741069 
 2090000    29.970548   -40.327116   -40.354234   -40.354234  0.027117981 
 2091000    27.801572   -40.338085   -40.363241   -40.363241  0.025155446 
 2092000    24.173601   -40.362231   -40.384104   -40.384104  0.021872783 
 2093000    20.943623    -40.36186    -40.38081    -40.38081  0.018950231 
 2094000    18.357197   -40.349404   -40.366014   -40.366014  0.016609978 
 2095000    15.333405   -40.351636    -40.36551    -40.36551  0.013873987 
 2096000    12.370518   -40.363917    -40.37511    -40.37511  0.011193104 
 2097000    9.2842554   -40.377732   -40.386133   -40.386133 0.0084005894 
 2098000     6.203508   -40.381459   -40.387072   -40.387072 0.0056130644 
 2099000    3.3032641   -40.378488   -40.381477   -40.381477 0.0029888627 
 2100000   0.28675783   -40.378679   -40.378939   -40.378939 0.00025946451 
 2100072  0.046873659   -40.379168   -40.379211   -40.379211 4.2412272e-05 
Loop time of 46.9292 on 1 procs for 1000000 steps with 8 atoms

Performance: 184.107 ns/day, 0.130 hours/ns, 21308.701 timesteps/s
99.0% CPU use with 1 MPI tasks x 1 OpenMP threads

MPI task timing breakdown:
Section |  min time  |  avg time  |  max time  |%varavg| %total
---------------------------------------------------------------
Pair    | 34.829     | 34.829     | 34.829     |   0.0 | 74.22
Neigh   | 4.7383     | 4.7383     | 4.7383     |   0.0 | 10.10
Comm    | 2.1446     | 2.1446     | 2.1446     |   0.0 |  4.57
Output  | 0.54383    | 0.54383    | 0.54383    |   0.0 |  1.16
Modify  | 3.6045     | 3.6045     | 3.6045     |   0.0 |  7.68
Other   |            | 1.069      |            |       |  2.28

Nlocal:        8.00000 ave           8 max           8 min
Histogram: 1 0 0 0 0 0 0 0 0 0
Nghost:        136.000 ave         136 max         136 min
Histogram: 1 0 0 0 0 0 0 0 0 0
Neighs:         0.00000 ave           0 max           0 min
Histogram: 1 0 0 0 0 0 0 0 0 0
FullNghs:      98.0000 ave          98 max          98 min
Histogram: 1 0 0 0 0 0 0 0 0 0

Total # of neighbors = 98
Ave neighs/atom = 12.250000
Neighbor list builds = 17967
Dangerous builds = 0
write_restart 	./endconf/endconf*3.restart
System init for write_restart ...
Total wall time: 0:01:39
