LAMMPS (7 Feb 2024 - Update 1)
OMP_NUM_THREADS environment is not set. Defaulting to 1 thread. (src/comm.cpp:98)
  using 1 OpenMP thread(s) per MPI task
#============Initialization=================
units 			metal
atom_style 		atomic
boundary 		p p p

############################################
#              CLI Variables               #
############################################
variable 		seed index 200093          #
variable 		N index 6                  #
variable 		iter index 1000000         #
variable 		iterther index 100000      #
variable 		iexport index 1000         #
variable 		tempchauf index 3000       #
variable 		Tdamp index 0.001          #
variable 		timestep index 0.0001      #
variable 		box_size index 50		   #
############################################
############################################
#=========Simulation box definition=========
lattice 		sc 1.0
Lattice spacing in x,y,z = 1 1 1
region 			bigbox block 0 ${box_size} 0 ${box_size} 0 ${box_size}
region 			bigbox block 0 50 0 ${box_size} 0 ${box_size}
region 			bigbox block 0 50 0 50 0 ${box_size}
region 			bigbox block 0 50 0 50 0 50
create_box 		1 bigbox
Created orthogonal box = (0 0 0) to (50 50 50)
  1 by 1 by 1 MPI processor grid

#==================Atoms====================
region 			safezone block 6 9 6 9 6 9 units box
create_atoms 	1 random ${N} ${seed} safezone
create_atoms 	1 random 6 ${seed} safezone
create_atoms 	1 random 6 200093 safezone
Created 6 atoms
  using lattice units in orthogonal box = (0 0 0) to (50 50 50)
  create_atoms CPU = 0.000 seconds
labelmap 		atom 1 C
mass 			* 12.01



#==========Velocity initialization==========
velocity 		all create 0.0000001 1563967 rot yes dist gaussian

#======Pair style for atom interactions=============
pair_style 		airebo 1.8 1 1
pair_coeff 		* * CH.airebo C
Reading airebo potential file CH.airebo with DATE: 2011-10-25

#==============Neighbor selection===================
neighbor 		0.3 bin
neigh_modify 	every 1 delay 0 check yes



#==============Custom Wall force====================
#==========Wall with harmonic potential=============
#variable       k equal 10.0

#fix             xlo_wall all wall/harmonic xlo EDGE v_k 1.0 0.7
#fix             xhi_wall all wall/harmonic xhi EDGE v_k 1.0 0.7
#fix             ylo_wall all wall/harmonic ylo EDGE v_k 1.0 0.7
#fix             yhi_wall all wall/harmonic yhi EDGE v_k 1.0 0.7
#fix             zlo_wall all wall/harmonic zlo EDGE v_k 1.0 0.7
#fix             zhi_wall all wall/harmonic zhi EDGE v_k 1.0 0.7



#=====================Timestep======================
timestep 		${timestep}
timestep 		0.0001

#===============Define dump command=================
dump 			1 all cfg 100000 ./dump/dump.tensile_*.cfg mass type xs ys zs vx vy vz id

#========System temperature printing info===========
thermo_style 	custom step temp etotal epair pe ke
thermo 			${iexport}	# 1'000'000
thermo 			1000	



#====================CRC Cycle======================

#=============Condensation et chauffe===============

# Minimize during the heating phase
#min_style       sd
#minimize        1.0e-5 1.0e-7 500 1000

fix 			1 all nve
fix 			2 all temp/berendsen 0.0 ${tempchauf} ${Tdamp}
fix 			2 all temp/berendsen 0.0 3000 ${Tdamp}
fix 			2 all temp/berendsen 0.0 3000 0.001
fix             3 all momentum 1 linear 1 1 1 angular rescale

run 			${iter}
run 			1000000
Neighbor list info ...
  update: every = 1 steps, delay = 0 steps, check = yes
  max neighbors/atom: 2000, page size: 100000
  master list distance cutoff = 8.116371
  ghost atom cutoff = 8.116371
  binsize = 4.0581855, bins = 13 13 13
  1 neighbor lists, perpetual/occasional/extra = 1 0 0
  (1) pair airebo, perpetual
      attributes: full, newton on, ghost
      pair build: full/bin/ghost
      stencil: full/ghost/bin/3d
      bin: standard
Per MPI rank memory allocation (min/avg/max) = 3.898 | 3.898 | 3.898 Mbytes
   Step          Temp          TotEng         E_pair         PotEng         KinEng    
         0   1e-07          24.80326       24.80326       24.80326       6.4630073e-11
      1000   14.410476     -25.510849     -25.520162     -25.520162      0.0093135008 
      2000   18.221006     -26.112134     -26.123911     -26.123911      0.011776249  
      3000   20.617246     -27.384436     -27.397761     -27.397761      0.013324941  
      4000   19.84096      -28.054624     -28.067447     -28.067447      0.012823227  
      5000   21.352563     -28.563352     -28.577152     -28.577152      0.013800177  
      6000   24.290986     -28.987172     -29.002871     -29.002871      0.015699282  
      7000   25.693665     -29.405704     -29.42231      -29.42231       0.016605834  
      8000   23.093334     -29.58431      -29.599236     -29.599236      0.014925239  
      9000   23.850158     -29.532359     -29.547774     -29.547774      0.015414375  
     10000   34.756257     -29.556007     -29.57847      -29.57847       0.022462994  
     11000   32.991249     -29.566671     -29.587993     -29.587993      0.021322268  
     12000   35.796774     -29.563151     -29.586286     -29.586286      0.023135481  
     13000   37.039691     -29.551844     -29.575783     -29.575783      0.023938779  
     14000   38.987937     -29.546641     -29.571839     -29.571839      0.025197932  
     15000   44.921071     -29.549599     -29.578632     -29.578632      0.029032521  
     16000   43.725516     -29.522493     -29.550753     -29.550753      0.028259832  
     17000   53.845444     -29.524387     -29.559187     -29.559187      0.034800349  
     18000   57.271524     -29.483205     -29.52022      -29.52022       0.037014627  
     19000   51.970213     -29.507329     -29.540918     -29.540918      0.033588386  
     20000   54.84257      -29.547893     -29.583337     -29.583337      0.035444792  
     21000   70.700355     -29.476937     -29.522631     -29.522631      0.045693691  
     22000   58.781666     -29.53801      -29.576001     -29.576001      0.037990634  
     23000   76.742761     -29.506868     -29.556467     -29.556467      0.049598902  
     24000   91.61022      -29.466941     -29.526149     -29.526149      0.059207751  
     25000   72.586841     -29.505179     -29.552092     -29.552092      0.046912928  
     26000   79.199663     -29.53405      -29.585237     -29.585237      0.0511868    
     27000   82.936765     -29.499776     -29.553378     -29.553378      0.053602091  
     28000   78.546673     -29.477256     -29.52802      -29.52802       0.050764772  
     29000   76.367089     -29.467147     -29.516503     -29.516503      0.049356105  
     30000   89.769027     -29.436947     -29.494965     -29.494965      0.058017787  
     31000   88.459865     -29.485873     -29.543045     -29.543045      0.057171675  
     32000   103.66234     -29.474528     -29.541525     -29.541525      0.066997043  
     33000   101.24252     -29.464381     -29.529814     -29.529814      0.065433112  
     34000   99.876382     -29.498327     -29.562877     -29.562877      0.064550178  
     35000   90.47815      -29.4516       -29.510076     -29.510076      0.058476094  
     36000   97.992792     -29.458462     -29.521795     -29.521795      0.063332813  
     37000   111.02922     -29.458419     -29.530177     -29.530177      0.071758264  
     38000   115.70083     -29.422034     -29.496812     -29.496812      0.074777532  
     39000   120.86252     -29.47025      -29.548363     -29.548363      0.078113535  
     40000   109.90909     -29.471123     -29.542157     -29.542157      0.071034324  
     41000   135.82181     -29.38868      -29.476461     -29.476461      0.087781732  
     42000   116.94217     -29.477638     -29.553217     -29.553217      0.07557981   
     43000   130.39077     -29.492713     -29.576984     -29.576984      0.08427165   
     44000   130.62393     -29.413401     -29.497823     -29.497823      0.084422343  
     45000   147.24508     -29.424527     -29.519691     -29.519691      0.095164601  
     46000   133.23986     -29.37493      -29.461043     -29.461043      0.086113015  
     47000   149.549       -29.424506     -29.52116      -29.52116       0.09665363   
     48000   148.54838     -29.417308     -29.513315     -29.513315      0.096006925  
     49000   155.19904     -29.366122     -29.466427     -29.466427      0.10030525   
     50000   138.28172     -29.276716     -29.366087     -29.366087      0.089371577  
     51000   151.69422     -29.363658     -29.461698     -29.461698      0.098040081  
     52000   159.1797      -29.401459     -29.504337     -29.504337      0.10287796   
     53000   172.46535     -29.384951     -29.496416     -29.496416      0.11146448   
     54000   171.32762     -29.363298     -29.474027     -29.474027      0.11072916   
     55000   141.45109     -29.349277     -29.440697     -29.440697      0.091419942  
     56000   153.47718     -29.388732     -29.487925     -29.487925      0.099192413  
     57000   168.44075     -29.3825       -29.491363     -29.491363      0.10886338   
     58000   176.18746     -29.348357     -29.462227     -29.462227      0.11387008   
     59000   165.47379     -29.371274     -29.47822      -29.47822       0.10694583   
     60000   173.65266     -29.339129     -29.451361     -29.451361      0.11223184   
     61000   169.77328     -29.430487     -29.540211     -29.540211      0.10972459   
     62000   172.04276     -29.360282     -29.471474     -29.471474      0.11119136   
     63000   188.55032     -29.295973     -29.417833     -29.417833      0.12186021   
     64000   203.45129     -29.349669     -29.481159     -29.481159      0.13149072   
     65000   212.56248     -29.319005     -29.456384     -29.456384      0.13737928   
     66000   174.93136     -29.266432     -29.379491     -29.379491      0.11305827   
     67000   239.01105     -29.368625     -29.523098     -29.523098      0.15447302   
     68000   196.46882     -29.222503     -29.349481     -29.349481      0.12697794   
     69000   207.35195     -29.321912     -29.455923     -29.455923      0.13401172   
     70000   239.99612     -29.361617     -29.516727     -29.516727      0.15510967   
     71000   189.10268     -29.32516      -29.447377     -29.447377      0.1222172    
     72000   241.06218     -29.405987     -29.561786     -29.561786      0.15579866   
     73000   216.28622     -29.326136     -29.465922     -29.465922      0.13978594   
     74000   221.21622     -29.316745     -29.459717     -29.459717      0.14297221   
     75000   225.75832     -29.276141     -29.422048     -29.422048      0.14590777   
     76000   218.42746     -29.230529     -29.371699     -29.371699      0.14116983   
     77000   228.94777     -29.239148     -29.387117     -29.387117      0.14796911   
     78000   246.58124     -29.2683       -29.427666     -29.427666      0.15936564   
     79000   238.99653     -29.266301     -29.420765     -29.420765      0.15446363   
     80000   240.25628     -29.262571     -29.417848     -29.417848      0.15527781   
     81000   220.91381     -29.372996     -29.515773     -29.515773      0.14277676   
     82000   240.80242     -29.307115     -29.462745     -29.462745      0.15563078   
     83000   265.90937     -29.057845     -29.229702     -29.229702      0.17185742   
     84000   252.57552     -29.110518     -29.273758     -29.273758      0.16323974   
     85000   232.00468     -29.148039     -29.297984     -29.297984      0.14994479   
     86000   245.51559     -29.283567     -29.442243     -29.442243      0.15867691   
     87000   262.33844     -29.285833     -29.455382     -29.455382      0.16954952   
     88000   245.92029     -29.117267     -29.276205     -29.276205      0.15893846   
     89000   296.31498     -29.259737     -29.451246     -29.451246      0.19150859   
     90000   245.67873     -29.236624     -29.395406     -29.395406      0.15878234   
     91000   273.34707     -29.13203      -29.308695     -29.308695      0.17666441   
     92000   272.49332     -29.255231     -29.431343     -29.431343      0.17611263   
     93000   274.3035      -29.296964     -29.474247     -29.474247      0.17728255   
     94000   296.71734     -29.230078     -29.421846     -29.421846      0.19176863   
     95000   281.34658     -29.340265     -29.522099     -29.522099      0.1818345    
     96000   305.39189     -29.181358     -29.378733     -29.378733      0.197375     
     97000   281.51518     -29.027991     -29.209934     -29.209934      0.18194346   
     98000   263.47979     -29.066754     -29.237041     -29.237041      0.17028718   
     99000   299.24364     -29.202745     -29.396147     -29.396147      0.19340138   
    100000   299.53636     -29.276601     -29.470192     -29.470192      0.19359057   
    101000   313.23125     -29.235712     -29.438153     -29.438153      0.20244159   
    102000   310.06353     -29.258198     -29.458592     -29.458592      0.20039428   
    103000   304.69505     -29.263476     -29.460401     -29.460401      0.19692463   
    104000   314.20833     -29.261569     -29.464642     -29.464642      0.20307307   
    105000   332.64849     -29.212471     -29.427462     -29.427462      0.21499096   
    106000   307.50357     -29.093685     -29.292425     -29.292425      0.19873978   
    107000   310.16476     -29.153591     -29.354051     -29.354051      0.20045971   
    108000   314.13953     -29.225083     -29.428111     -29.428111      0.2030286    
    109000   324.4841      -29.166798     -29.376513     -29.376513      0.20971431   
    110000   323.19593     -29.08818      -29.297062     -29.297062      0.20888176   
    111000   368.35802     -28.895423     -29.133493     -29.133493      0.23807005   
    112000   338.50856     -29.184161     -29.40294      -29.40294       0.21877833   
    113000   304.46168     -29.170401     -29.367175     -29.367175      0.1967738    
    114000   361.35658     -29.275678     -29.509223     -29.509223      0.23354502   
    115000   328.03196     -29.236043     -29.44805      -29.44805       0.2120073    
    116000   373.67162     -29.182981     -29.424485     -29.424485      0.24150424   
    117000   346.84559     -29.192571     -29.416737     -29.416737      0.22416655   
    118000   356.74614     -29.232317     -29.462883     -29.462883      0.23056529   
    119000   377.67111     -29.106203     -29.350292     -29.350292      0.24408911   
    120000   405.01262     -28.970427     -29.232187     -29.232187      0.26175995   
    121000   340.88077     -29.001311     -29.221622     -29.221622      0.22031149   
    122000   335.44296     -28.945238     -29.162035     -29.162035      0.21679703   
    123000   388.83802     -29.08452      -29.335827     -29.335827      0.25130629   
    124000   399.16603     -28.863746     -29.121728     -29.121728      0.25798129   
    125000   359.88099     -29.136368     -29.368959     -29.368959      0.23259135   
    126000   378.74527     -29.206741     -29.451524     -29.451524      0.24478334   
    127000   376.80558     -29.218164     -29.461694     -29.461694      0.24352972   
    128000   383.19395     -29.100895     -29.348553     -29.348553      0.24765853   
    129000   378.68189     -29.098296     -29.343038     -29.343038      0.24474238   
    130000   375.07844     -29.050291     -29.292705     -29.292705      0.24241347   
    131000   403.19987     -29.177694     -29.438282     -29.438282      0.26058837   
    132000   418.44236     -29.034059     -29.304498     -29.304498      0.2704396    
    133000   424.93865     -29.200136     -29.474774     -29.474774      0.27463816   
    134000   402.57983     -29.01282      -29.273008     -29.273008      0.26018764   
    135000   395.80725     -28.954913     -29.210724     -29.210724      0.25581052   
    136000   365.33511     -29.032866     -29.268983     -29.268983      0.23611635   
    137000   401.57099     -28.925206     -29.184742     -29.184742      0.25953562   
    138000   402.13044     -29.204823     -29.46472      -29.46472       0.25989719   
    139000   404.82799     -29.048897     -29.310538     -29.310538      0.26164062   
    140000   401.73588     -28.838659     -29.098301     -29.098301      0.25964219   
    141000   413.06616     -29.165014     -29.431979     -29.431979      0.26696496   
    142000   445.44935     -28.880652     -29.168546     -29.168546      0.28789424   
    143000   441.74094     -29.055102     -29.340599     -29.340599      0.28549749   
    144000   424.16468     -28.924876     -29.199014     -29.199014      0.27413794   
    145000   455.29845     -28.871249     -29.165509     -29.165509      0.29425972   
    146000   463.17218     -29.192736     -29.492084     -29.492084      0.29934851   
    147000   425.83336     -28.983583     -29.2588       -29.2588        0.27521641   
    148000   419.58456     -28.891476     -29.162654     -29.162654      0.27117781   
    149000   473.29106     -29.104071     -29.40996      -29.40996       0.30588836   
    150000   440.02451     -29.067494     -29.351882     -29.351882      0.28438816   
    151000   405.00896     -28.783514     -29.045272     -29.045272      0.26175758   
    152000   460.5785      -28.90582      -29.203492     -29.203492      0.29767222   
    153000   439.74809     -29.027359     -29.311569     -29.311569      0.28420951   
    154000   501.41728     -28.991518     -29.315585     -29.315585      0.32406635   
    155000   422.22425     -28.468521     -28.741405     -28.741405      0.27288384   
    156000   485.21434     -29.002034     -29.315628     -29.315628      0.31359438   
    157000   500.60151     -29.021782     -29.345322     -29.345322      0.32353912   
    158000   471.07845     -29.154543     -29.459001     -29.459001      0.30445834   
    159000   557.81665     -28.881986     -29.242503     -29.242503      0.3605173    
    160000   438.61014     -28.742087     -29.025561     -29.025561      0.28347405   
    161000   474.98957     -28.864723     -29.171709     -29.171709      0.3069861    
    162000   464.47141     -29.017019     -29.317207     -29.317207      0.30018821   
    163000   486.57377     -29.107717     -29.42219      -29.42219       0.31447298   
    164000   488.9878      -28.95141      -29.267443     -29.267443      0.31603317   
    165000   491.66176     -28.902186     -29.219947     -29.219947      0.31776135   
    166000   456.24554     -28.706388     -29.00126      -29.00126       0.29487182   
    167000   553.72949     -28.715442     -29.073318     -29.073318      0.35787577   
    168000   494.43729     -28.859713     -29.179268     -29.179268      0.31955518   
    169000   570.99082     -28.987887     -29.356919     -29.356919      0.36903178   
    170000   601.90256     -28.840608     -29.229618     -29.229618      0.38901006   
    171000   540.67266     -28.840888     -29.190325     -29.190325      0.34943713   
    172000   506.63138     -28.921172     -29.248608     -29.248608      0.32743623   
    173000   549.16131     -28.770346     -29.125269     -29.125269      0.35492335   
    174000   504.51317     -28.718289     -29.044356     -29.044356      0.32606723   
    175000   553.58312     -28.892762     -29.250543     -29.250543      0.35778117   
    176000   503.46568     -28.82586      -29.15125      -29.15125       0.32539023   
    177000   530.39149     -28.970898     -29.313691     -29.313691      0.34279241   
    178000   570.20097     -28.761604     -29.130126     -29.130126      0.3685213    
    179000   522.49715     -28.813937     -29.151627     -29.151627      0.33769029   
    180000   550.90528     -28.99326      -29.349311     -29.349311      0.35605048   
    181000   551.78029     -28.831969     -29.188585     -29.188585      0.356616     
    182000   536.33053     -29.067573     -29.414204     -29.414204      0.34663081   
    183000   575.36219     -28.797752     -29.169609     -29.169609      0.371857     
    184000   505.6352      -28.662312     -28.989105     -28.989105      0.3267924    
    185000   559.9839      -29.004764     -29.366682     -29.366682      0.361918     
    186000   582.09933     -28.785012     -29.161224     -29.161224      0.37621122   
    187000   552.7592      -28.976163     -29.333411     -29.333411      0.35724867   
    188000   562.21859     -28.843193     -29.206555     -29.206555      0.36336228   
    189000   590.28486     -28.673928     -29.05543      -29.05543       0.38150153   
    190000   571.35358     -28.897636     -29.266902     -29.266902      0.36926623   
    191000   591.29984     -28.954209     -29.336366     -29.336366      0.38215751   
    192000   508.99098     -28.737072     -29.066033     -29.066033      0.32896124   
    193000   570.84595     -28.643189     -29.012127     -29.012127      0.36893815   
    194000   529.78922     -28.888558     -29.230961     -29.230961      0.34240316   
    195000   673.10013     -28.707758     -29.142783     -29.142783      0.4350251    
    196000   586.13255     -28.547052     -28.92587      -28.92587       0.37881789   
    197000   596.38477     -28.834693     -29.220136     -29.220136      0.38544391   
    198000   608.28314     -28.785492     -29.178626     -29.178626      0.39313383   
    199000   631.76079     -28.651735     -29.060042     -29.060042      0.40830746   
    200000   585.7748      -28.900925     -29.279512     -29.279512      0.37858668   
    201000   610.45639     -28.711107     -29.105645     -29.105645      0.39453841   
    202000   682.59188     -28.681255     -29.122415     -29.122415      0.44115963   
    203000   597.96813     -28.564428     -28.950895     -28.950895      0.38646724   
    204000   582.3051      -28.926594     -29.302938     -29.302938      0.37634421   
    205000   598.85517     -28.433683     -28.820723     -28.820723      0.38704053   
    206000   619.84788     -28.563318     -28.963926     -28.963926      0.40060814   
    207000   604.89806     -28.91247      -29.303416     -29.303416      0.39094606   
    208000   603.30869     -28.87488      -29.264799     -29.264799      0.38991884   
    209000   687.9029      -28.221372     -28.665965     -28.665965      0.44459214   
    210000   621.24679     -28.607012     -29.008524     -29.008524      0.40151225   
    211000   651.29873     -28.831459     -29.252394     -29.252394      0.42093484   
    212000   556.25034     -28.170984     -28.530489     -28.530489      0.359505     
    213000   642.60813     -28.670442     -29.08576      -29.08576       0.4153181    
    214000   627.22383     -28.759801     -29.165176     -29.165176      0.40537522   
    215000   602.98467     -28.856988     -29.246698     -29.246698      0.38970943   
    216000   590.48924     -28.886952     -29.268586     -29.268586      0.38163362   
    217000   696.01975     -28.498697     -28.948536     -28.948536      0.44983807   
    218000   640.03281     -28.155201     -28.568854     -28.568854      0.41365367   
    219000   686.03586     -28.841246     -29.284631     -29.284631      0.44338548   
    220000   539.21307     -28.878224     -29.226718     -29.226718      0.3484938    
    221000   671.21591     -28.700067     -29.133874     -29.133874      0.43380733   
    222000   683.48741     -28.76264      -29.204378     -29.204378      0.44173841   
    223000   677.6857      -28.653592     -29.091581     -29.091581      0.43798876   
    224000   609.17595     -28.495914     -28.889625     -28.889625      0.39371086   
    225000   632.86456     -28.447082     -28.856103     -28.856103      0.40902083   
    226000   741.2459      -28.512546     -28.991614     -28.991614      0.47906776   
    227000   751.63516     -28.77823      -29.264012     -29.264012      0.48578235   
    228000   674.6246      -28.745742     -29.181752     -29.181752      0.43601037   
    229000   650.72646     -28.738033     -29.158598     -29.158598      0.42056498   
    230000   734.59376     -28.849355     -29.324124     -29.324124      0.47476848   
    231000   802.73593     -28.598608     -29.117417     -29.117417      0.51880881   
    232000   611.61438     -28.344655     -28.739942     -28.739942      0.39528682   
    233000   777.87455     -28.758323     -29.261064     -29.261064      0.50274089   
    234000   708.62807     -28.757368     -29.215355     -29.215355      0.45798683   
    235000   741.01479     -28.519963     -28.998882     -28.998882      0.4789184    
    236000   737.60895     -28.605034     -29.081751     -29.081751      0.4767172    
    237000   673.39241     -28.397584     -28.832798     -28.832798      0.435214     
    238000   737.54592     -28.630491     -29.107167     -29.107167      0.47667646   
    239000   648.83142     -28.735209     -29.15455      -29.15455       0.41934022   
    240000   653.79138     -28.697982     -29.120528     -29.120528      0.42254584   
    241000   740.51028     -28.617702     -29.096294     -29.096294      0.47859233   
    242000   616.25415     -28.678518     -29.076803     -29.076803      0.3982855    
    243000   734.14754     -28.910404     -29.384884     -29.384884      0.47448009   
    244000   789.21266     -28.552557     -29.062626     -29.062626      0.51006871   
    245000   692.30092     -28.334074     -28.781508     -28.781508      0.44743459   
    246000   831.30335     -28.6644       -29.201672     -29.201672      0.53727196   
    247000   700.9988      -28.530984     -28.98404      -28.98404       0.45305603   
    248000   770.29789     -28.461239     -28.959083     -28.959083      0.49784409   
    249000   715.94423     -28.568865     -29.03158      -29.03158       0.46271528   
    250000   785.3622      -28.766798     -29.274379     -29.274379      0.50758016   
    251000   732.70274     -28.396986     -28.870532     -28.870532      0.47354631   
    252000   896.04432     -28.544104     -29.123218     -29.123218      0.5791141    
    253000   654.21257     -28.316607     -28.739425     -28.739425      0.42281806   
    254000   695.0898      -28.700886     -29.150123     -29.150123      0.44923704   
    255000   772.44765     -28.423916     -28.923149     -28.923149      0.49923348   
    256000   852.22696     -28.417114     -28.967908     -28.967908      0.5507949    
    257000   790.57705     -28.591516     -29.102466     -29.102466      0.51095052   
    258000   835.00749     -28.703483     -29.243149     -29.243149      0.53966595   
    259000   850.92578     -28.829152     -29.379106     -29.379106      0.54995395   
    260000   727.2925      -28.533298     -29.003348     -29.003348      0.47004967   
    261000   813.21079     -28.095127     -28.620705     -28.620705      0.52557872   
    262000   800.97582     -28.79941      -29.317081     -29.317081      0.51767126   
    263000   797.23574     -28.096206     -28.61146      -28.61146       0.51525404   
    264000   798.35624     -28.602568     -29.118546     -29.118546      0.51597822   
    265000   797.3457      -28.470038     -28.985363     -28.985363      0.5153251    
    266000   841.74631     -28.602766     -29.146787     -29.146787      0.54402125   
    267000   865.49715     -28.425466     -28.984837     -28.984837      0.55937143   
    268000   924.49486     -28.464628     -29.062129     -29.062129      0.5975017    
    269000   772.92174     -28.237107     -28.736647     -28.736647      0.49953988   
    270000   781.72184     -28.73482      -29.240047     -29.240047      0.50522739   
    271000   761.47092     -28.602861     -29.095        -29.095         0.49213921   
    272000   782.47583     -28.446468     -28.952183     -28.952183      0.5057147    
    273000   776.75263     -28.552084     -29.0541       -29.0541        0.50201579   
    274000   841.82817     -28.669171     -29.213245     -29.213245      0.54407416   
    275000   831.09637     -28.677306     -29.214444     -29.214444      0.53713819   
    276000   882.31126     -28.576814     -29.147052     -29.147052      0.57023841   
    277000   834.99013     -28.534944     -29.074599     -29.074599      0.53965473   
    278000   785.6957      -28.757677     -29.265473     -29.265473      0.5077957    
    279000   859.78641     -27.601985     -28.157666     -28.157666      0.55568058   
    280000   811.50932     -28.214971     -28.73945      -28.73945       0.52447906   
    281000   865.26443     -28.776829     -29.336051     -29.336051      0.55922103   
    282000   1005.7173     -27.771016     -28.421012     -28.421012      0.6499958    
    283000   806.69886     -28.576479     -29.097849     -29.097849      0.52137005   
    284000   889.17393     -28.526883     -29.101557     -29.101557      0.57467375   
    285000   824.30555     -28.579755     -29.112504     -29.112504      0.53274928   
    286000   762.03898     -28.152779     -28.645286     -28.645286      0.49250634   
    287000   861.5027      -28.55587      -29.11266      -29.11266       0.55678982   
    288000   911.0025      -28.321168     -28.909949     -28.909949      0.58878158   
    289000   1024.9945     -27.793356     -28.45581      -28.45581       0.66245469   
    290000   864.84197     -28.259598     -28.818546     -28.818546      0.55894799   
    291000   910.19928     -28.725088     -29.313351     -29.313351      0.58826245   
    292000   888.70416     -28.506753     -29.081123     -29.081123      0.57437014   
    293000   996.85516     -27.920861     -28.565129     -28.565129      0.64426821   
    294000   884.95758     -28.366247     -28.938196     -28.938196      0.57194872   
    295000   894.60765     -28.305231     -28.883416     -28.883416      0.57818557   
    296000   908.05417     -28.424116     -29.010992     -29.010992      0.58687607   
    297000   914.52529     -28.613413     -29.204471     -29.204471      0.59105836   
    298000   862.82076     -28.32672      -28.884362     -28.884362      0.55764168   
    299000   857.68681     -28.395295     -28.949619     -28.949619      0.55432361   
    300000   891.42492     -28.416915     -28.993043     -28.993043      0.57612857   
    301000   946.12004     -28.394688     -29.006166     -29.006166      0.61147807   
    302000   910.99042     -28.534695     -29.123469     -29.123469      0.58877377   
    303000   894.79121     -28.413984     -28.992288     -28.992288      0.57830421   
    304000   957.75846     -28.358739     -28.977739     -28.977739      0.61899999   
    305000   921.33085     -28.475947     -29.071404     -29.071404      0.59545679   
    306000   897.67384     -28.400734     -28.980902     -28.980902      0.58016726   
    307000   939.43968     -28.153503     -28.760664     -28.760664      0.60716055   
    308000   930.02048     -28.518851     -29.119924     -29.119924      0.60107291   
    309000   936.74671     -28.270311     -28.875731     -28.875731      0.60542008   
    310000   954.09414     -28.290426     -28.907058     -28.907058      0.61663173   
    311000   973.54453     -28.424087     -29.053289     -29.053289      0.62920254   
    312000   975.21881     -28.246822     -28.877106     -28.877106      0.63028462   
    313000   922.48477     -28.173779     -28.769982     -28.769982      0.59620257   
    314000   971.9603      -28.555976     -29.184155     -29.184155      0.62817864   
    315000   1019.9745     -28.123095     -28.782306     -28.782306      0.65921025   
    316000   966.87054     -28.316566     -28.941455     -28.941455      0.62488913   
    317000   1019.7758     -28.471316     -29.130398     -29.130398      0.65908187   
    318000   864.96695     -28.15255      -28.711579     -28.711579      0.55902877   
    319000   978.0841      -28.484765     -29.116902     -29.116902      0.63213646   
    320000   1065.4686     -28.25771      -28.946323     -28.946323      0.68861315   
    321000   908.59761     -27.952651     -28.539878     -28.539878      0.5872273    
    322000   1010.5855     -28.381151     -29.034294     -29.034294      0.65314215   
    323000   1071.4115     -28.090151     -28.782605     -28.782605      0.692454     
    324000   940.62198     -28.158283     -28.766208     -28.766208      0.60792467   
    325000   1005.2342     -28.547623     -29.197306     -29.197306      0.64968361   
    326000   940.81404     -27.945395     -28.553444     -28.553444      0.60804879   
    327000   1021.367      -28.423318     -29.083428     -29.083428      0.66011026   
    328000   932.85265     -28.124921     -28.727825     -28.727825      0.60290334   
    329000   983.67111     -28.391176     -29.026923     -29.026923      0.63574735   
    330000   1017.937      -28.210046     -28.86794      -28.86794       0.65789341   
    331000   1000.0059     -28.08111      -28.727414     -28.727414      0.64630451   
    332000   1013.6632     -28.100839     -28.755971     -28.755971      0.65513128   
    333000   943.29209     -28.448382     -29.058032     -29.058032      0.60965036   
    334000   1016.3629     -28.345647     -29.002524     -29.002524      0.65687609   
    335000   985.10971     -28.559349     -29.196026     -29.196026      0.63667712   
    336000   877.4099      -27.918798     -28.485869     -28.485869      0.56707065   
    337000   958.67958     -28.36288      -28.982475     -28.982475      0.6195953    
    338000   1037.0058     -28.346479     -29.016696     -29.016696      0.6702176    
    339000   968.99864     -27.835535     -28.4618       -28.4618        0.62626452   
    340000   949.71959     -28.459598     -29.073403     -29.073403      0.61380446   
    341000   1063.6637     -28.4225       -29.109947     -29.109947      0.68744659   
    342000   991.76268     -28.109743     -28.75072      -28.75072       0.64097694   
    343000   961.20535     -28.138536     -28.759764     -28.759764      0.62122771   
    344000   1014.3543     -28.549836     -29.205414     -29.205414      0.65557791   
    345000   995.24435     -28.51462      -29.157847     -29.157847      0.64322715   
    346000   1137.6357     -28.279036     -29.014291     -29.014291      0.73525479   
    347000   873.93656     -28.07093      -28.635756     -28.635756      0.56482583   
    348000   1057.6289     -28.107268     -28.790814     -28.790814      0.68354631   
    349000   1125.9026     -28.308782     -29.036453     -29.036453      0.72767166   
    350000   998.42985     -28.140055     -28.785341     -28.785341      0.64528593   
    351000   1114.5589     -28.013553     -28.733893     -28.733893      0.72034021   
    352000   1018.7965     -28.399532     -29.057981     -29.057981      0.65844891   
    353000   1099.3128     -27.754897     -28.465383     -28.465383      0.71048665   
    354000   1062.092      -28.202961     -28.889392     -28.889392      0.68643083   
    355000   1067.7063     -28.119252     -28.809311     -28.809311      0.69005937   
    356000   1087.9593     -28.029638     -28.732787     -28.732787      0.70314887   
    357000   1059.5731     -28.206713     -28.891516     -28.891516      0.68480289   
    358000   1040.9099     -27.953187     -28.625928     -28.625928      0.67274083   
    359000   1053.4713     -28.255013     -28.935873     -28.935873      0.68085928   
    360000   1094.9404     -28.317383     -29.025044     -29.025044      0.70766076   
    361000   1090.6038     -28.13218      -28.837038     -28.837038      0.70485805   
    362000   1088.8089     -28.282878     -28.986576     -28.986576      0.70369798   
    363000   1055.0937     -28.284591     -28.966499     -28.966499      0.68190784   
    364000   1049.894      -27.999534     -28.678082     -28.678082      0.67854723   
    365000   1102.3628     -28.470313     -29.18277      -29.18277       0.71245787   
    366000   1060.2182     -27.872753     -28.557973     -28.557973      0.68521977   
    367000   1091.3819     -28.399554     -29.104915     -29.104915      0.70536094   
    368000   1121.4654     -28.008181     -28.732984     -28.732984      0.72480389   
    369000   1093.1818     -28.232828     -28.939352     -28.939352      0.7065242    
    370000   1114.7855     -28.214541     -28.935028     -28.935028      0.7204867    
    371000   1170.1946     -27.906278     -28.662575     -28.662575      0.75629763   
    372000   1102.4296     -27.831953     -28.544454     -28.544454      0.71250108   
    373000   1067.2034     -28.392777     -29.082511     -29.082511      0.6897343    
    374000   1157.1763     -27.617401     -28.365285     -28.365285      0.74788388   
    375000   1063.8219     -27.971689     -28.659238     -28.659238      0.68754885   
    376000   1107.6063     -28.456877     -29.172723     -29.172723      0.71584678   
    377000   1154.9284     -27.501128     -28.247559     -28.247559      0.74643104   
    378000   1091.0782     -27.495591     -28.200756     -28.200756      0.70516466   
    379000   1211.0493     -28.395556     -29.178258     -29.178258      0.78270201   
    380000   1107.3945     -27.717295     -28.433005     -28.433005      0.71570987   
    381000   1106.0054     -28.002238     -28.71705      -28.71705       0.71481206   
    382000   1311.5309     -27.914467     -28.76211      -28.76211       0.84764338   
    383000   1124.5942     -27.876767     -28.603593     -28.603593      0.72682603   
    384000   1249.7851     -27.717942     -28.525679     -28.525679      0.807737     
    385000   1076.5395     -27.55297      -28.248738     -28.248738      0.69576825   
    386000   1059.0312     -27.928116     -28.612568     -28.612568      0.68445266   
    387000   1152.5197     -28.231904     -28.976778     -28.976778      0.7448743    
    388000   1092.3498     -28.19226      -28.898246     -28.898246      0.70598647   
    389000   1217.2851     -27.645269     -28.432002     -28.432002      0.78673226   
    390000   1109.5894     -27.817946     -28.535075     -28.535075      0.7171284    
    391000   1272.6021     -27.89005      -28.712534     -28.712534      0.82248367   
    392000   1093.6729     -28.019582     -28.726424     -28.726424      0.70684156   
    393000   1256.9931     -28.326861     -29.139256     -29.139256      0.81239557   
    394000   1223.081      -28.396076     -29.186554     -29.186554      0.79047816   
    395000   1151.0648     -27.804099     -28.548033     -28.548033      0.74393405   
    396000   1277.0501     -27.897809     -28.723168     -28.723168      0.82535842   
    397000   1188.7865     -28.43127      -29.199584     -29.199584      0.76831357   
    398000   1154.3331     -27.169736     -27.915782     -27.915782      0.74604633   
    399000   1167.526      -27.992193     -28.746765     -28.746765      0.75457291   
    400000   1343.0925     -28.015213     -28.883255     -28.883255      0.86804166   
    401000   1135.0669     -27.354129     -28.087724     -28.087724      0.73359453   
    402000   1207.0823     -27.951398     -28.731536     -28.731536      0.7801382    
    403000   1242.504      -28.316093     -29.119124     -29.119124      0.80303124   
    404000   1383.864      -28.084785     -28.979178     -28.979178      0.89439232   
    405000   1207.9772     -27.88446      -28.665176     -28.665176      0.78071652   
    406000   1191.1352     -28.006713     -28.776545     -28.776545      0.76983154   
    407000   1290.9941     -27.567186     -28.401556     -28.401556      0.83437043   
    408000   1164.1973     -27.628994     -28.381415     -28.381415      0.75242157   
    409000   1340.6146     -28.209884     -29.076324     -29.076324      0.86644017   
    410000   1120.6371     -27.787864     -28.512133     -28.512133      0.72426855   
    411000   1199.8518     -27.986823     -28.762288     -28.762288      0.7754651    
    412000   1318.9817     -27.764047     -28.616506     -28.616506      0.85245881   
    413000   1337.4691     -27.765208     -28.629616     -28.629616      0.86440727   
    414000   1225.0634     -27.865205     -28.656964     -28.656964      0.79175935   
    415000   1193.9219     -27.952295     -28.723928     -28.723928      0.77163262   
    416000   1187.1806     -27.761379     -28.528655     -28.528655      0.76727569   
    417000   1311.8095     -27.960777     -28.808601     -28.808601      0.84782346   
    418000   1190.3413     -27.815988     -28.585306     -28.585306      0.76931844   
    419000   1249.7236     -27.752577     -28.560275     -28.560275      0.80769726   
    420000   1276.1781     -27.870462     -28.695257     -28.695257      0.82479485   
    421000   1275.7392     -28.049669     -28.87418      -28.87418       0.82451116   
    422000   1322.4584     -27.717036     -28.571741     -28.571741      0.85470581   
    423000   1260.6816     -28.016289     -28.831069     -28.831069      0.81477943   
    424000   1348.8759     -28.289504     -29.161284     -29.161284      0.87177948   
    425000   1407.5166     -27.876259     -28.785938     -28.785938      0.90967899   
    426000   1193.0359     -27.719398     -28.490458     -28.490458      0.77105998   
    427000   1333.0406     -28.130848     -28.992394     -28.992394      0.86154512   
    428000   1287.1064     -27.603853     -28.435711     -28.435711      0.83185779   
    429000   1225.6208     -27.82448      -28.6166       -28.6166        0.79211963   
    430000   1346.0802     -28.182957     -29.05293      -29.05293       0.86997258   
    431000   1260.9653     -27.478659     -28.293622     -28.293622      0.8149628    
    432000   1236.7433     -28.017895     -28.817204     -28.817204      0.7993081    
    433000   1305.5557     -27.917836     -28.761617     -28.761617      0.84378159   
    434000   1274.8407     -27.39493      -28.218861     -28.218861      0.82393049   
    435000   1367.3673     -28.260711     -29.144442     -29.144442      0.88373047   
    436000   1351.7652     -27.400162     -28.273809     -28.273809      0.87364685   
    437000   1309.1908     -28.220685     -29.066816     -29.066816      0.84613099   
    438000   1355.9092     -27.959525     -28.835851     -28.835851      0.87632512   
    439000   1282.9167     -27.328235     -28.157385     -28.157385      0.82914998   
    440000   1336.653      -28.183428     -29.047308     -29.047308      0.86387983   
    441000   1445.1482     -27.216084     -28.150084     -28.150084      0.93400033   
    442000   1358.7933     -28.086389     -28.964578     -28.964578      0.8781891    
    443000   1399.0395     -27.789911     -28.694112     -28.694112      0.90420022   
    444000   1326.5648     -27.435163     -28.292523     -28.292523      0.85735982   
    445000   1365.6027     -28.18493      -29.06752      -29.06752       0.88258999   
    446000   1336.0654     -27.179142     -28.042643     -28.042643      0.86350005   
    447000   1248.1564     -28.042523     -28.849208     -28.849208      0.80668442   
    448000   1330.8102     -27.948216     -28.808319     -28.808319      0.86010361   
    449000   1311.8581     -27.508702     -28.356557     -28.356557      0.84785484   
    450000   1338.6992     -27.756694     -28.621897     -28.621897      0.86520225   
    451000   1365.9863     -27.938114     -28.820952     -28.820952      0.88283793   
    452000   1364.4992     -27.764024     -28.6459       -28.6459        0.88187684   
    453000   1372.717      -27.856698     -28.743886     -28.743886      0.88718798   
    454000   1452.4555     -27.453201     -28.391924     -28.391924      0.93872301   
    455000   1378.9453     -28.122254     -29.013468     -29.013468      0.89121336   
    456000   1409.7908     -27.602776     -28.513925     -28.513925      0.9111488    
    457000   1372.7799     -27.787054     -28.674283     -28.674283      0.88722866   
    458000   1452.1603     -27.967006     -28.905538     -28.905538      0.93853224   
    459000   1349.2535     -27.713553     -28.585576     -28.585576      0.87202351   
    460000   1396.3309     -27.773178     -28.675628     -28.675628      0.90244966   
    461000   1325.5827     -27.932614     -28.789339     -28.789339      0.85672507   
    462000   1411.5918     -27.586168     -28.498481     -28.498481      0.91231283   
    463000   1256.4686     -27.701142     -28.513198     -28.513198      0.81205659   
    464000   1309.8476     -27.635016     -28.481571     -28.481571      0.84655545   
    465000   1333.21       -28.033109     -28.894763     -28.894763      0.86165456   
    466000   1495.6314     -27.577693     -28.544321     -28.544321      0.96662763   
    467000   1392.7186     -27.18538      -28.085495     -28.085495      0.90011505   
    468000   1411.5857     -28.021109     -28.933418     -28.933418      0.91230886   
    469000   1539.2688     -27.303313     -28.298143     -28.298143      0.99483056   
    470000   1156.5798     -26.100161     -26.847659     -26.847659      0.74749836   
    471000   1416.5702     -27.80617      -28.7217       -28.7217        0.91553032   
    472000   1441.8603     -26.442034     -27.373909     -27.373909      0.93187533   
    473000   1340.2789     -27.460869     -28.327093     -28.327093      0.86622323   
    474000   1374.4434     -28.208767     -29.09707      -29.09707       0.88830378   
    475000   1492.4586     -27.24716      -28.211737     -28.211737      0.96457708   
    476000   1415.6887     -27.855685     -28.770645     -28.770645      0.91496063   
    477000   1456.857      -27.707048     -28.648616     -28.648616      0.94156773   
    478000   1453.5596     -27.494685     -28.434122     -28.434122      0.93943662   
    479000   1418.1571     -27.595218     -28.511774     -28.511774      0.91655598   
    480000   1366.6637     -28.021577     -28.904853     -28.904853      0.88327572   
    481000   1408.9017     -27.618183     -28.528757     -28.528757      0.91057422   
    482000   1480.5547     -28.039774     -28.996658     -28.996658      0.95688359   
    483000   1384.3349     -27.780554     -28.67525      -28.67525       0.89469665   
    484000   1382.4169     -27.531257     -28.424714     -28.424714      0.89345705   
    485000   1426.0192     -27.95679      -28.878427     -28.878427      0.92163724   
    486000   1507.1656     -27.681001     -28.655084     -28.655084      0.97408221   
    487000   1379.1178     -27.998898     -28.890223     -28.890223      0.89132482   
    488000   1472.9564     -27.566127     -28.5181       -28.5181        0.95197281   
    489000   1445.189      -27.78374      -28.717766     -28.717766      0.93402672   
    490000   1440.7711     -27.665268     -28.59644      -28.59644       0.9311714    
    491000   1400.7465     -27.6821       -28.587404     -28.587404      0.90530347   
    492000   1414.2639     -27.768928     -28.682968     -28.682968      0.91403976   
    493000   1475.0605     -27.572474     -28.525807     -28.525807      0.9533327    
    494000   1537.9649     -27.518561     -28.512549     -28.512549      0.99398786   
    495000   1483.018      -27.421574     -28.38005      -28.38005       0.95847559   
    496000   1396.8615     -27.648353     -28.551145     -28.551145      0.90279257   
    497000   1563.3451     -27.742084     -28.752476     -28.752476      1.0103911    
    498000   1473.8329     -27.336137     -28.288676     -28.288676      0.95253927   
    499000   1514.1189     -27.943708     -28.922285     -28.922285      0.97857614   
    500000   1527.2101     -27.551893     -28.53893      -28.53893       0.98703701   
    501000   1516.6918     -27.629751     -28.60999      -28.60999       0.98023898   
    502000   1499.8712     -27.988205     -28.957573     -28.957573      0.96936782   
    503000   1458.4196     -27.325657     -28.268234     -28.268234      0.94257767   
    504000   1544.0074     -28.023155     -29.021048     -29.021048      0.99789311   
    505000   1469.2253     -27.357267     -28.306828     -28.306828      0.94956136   
    506000   1528.2768     -27.561559     -28.549285     -28.549285      0.98772639   
    507000   1490.549      -27.960869     -28.924212     -28.924212      0.96334287   
    508000   1691.5405     -27.180558     -28.273802     -28.273802      1.0932439    
    509000   1540.5221     -27.677367     -28.673008     -28.673008      0.99564053   
    510000   1605.5984     -27.801491     -28.839191     -28.839191      1.0376994    
    511000   1463.6164     -27.425669     -28.371605     -28.371605      0.94593634   
    512000   1621.8725     -27.639347     -28.687565     -28.687565      1.0482173    
    513000   1554.7912     -27.478483     -28.483346     -28.483346      1.0048627    
    514000   1508.7276     -27.795167     -28.770259     -28.770259      0.97509172   
    515000   1608.7131     -27.473549     -28.513262     -28.513262      1.0397124    
    516000   1503.5587     -27.646324     -28.618075     -28.618075      0.97175107   
    517000   1577.0302     -27.622123     -28.641359     -28.641359      1.0192358    
    518000   1538.139      -27.741584     -28.735685     -28.735685      0.99410037   
    519000   1670.9493     -27.729079     -28.809014     -28.809014      1.0799358    
    520000   1573.5839     -27.746285     -28.763293     -28.763293      1.0170084    
    521000   1682.8134     -27.555011     -28.642614     -28.642614      1.0876035    
    522000   1617.9831     -27.680437     -28.72614      -28.72614       1.0457037    
    523000   1611.4665     -27.599906     -28.641398     -28.641398      1.041492     
    524000   1522.6522     -27.635039     -28.61913      -28.61913       0.98409124   
    525000   1565.0636     -27.421281     -28.432783     -28.432783      1.0115018    
    526000   1565.6933     -27.951352     -28.96326      -28.96326       1.0119087    
    527000   1511.3412     -27.253853     -28.230634     -28.230634      0.97678089   
    528000   1503.9529     -27.574518     -28.546524     -28.546524      0.97200583   
    529000   1581.9062     -27.721944     -28.744332     -28.744332      1.0223872    
    530000   1638.8986     -27.286337     -28.345558     -28.345558      1.0592214    
    531000   1610.9285     -28.125722     -29.166866     -29.166866      1.0411443    
    532000   1542.3267     -26.800027     -27.796834     -27.796834      0.99680685   
    533000   1616.0784     -28.013199     -29.057672     -29.057672      1.0444726    
    534000   1658.6956     -26.945308     -28.017324     -28.017324      1.0720162    
    535000   1520.1652     -27.905788     -28.888272     -28.888272      0.98248389   
    536000   1656.7688     -27.271269     -28.34204      -28.34204       1.0707709    
    537000   1623.5396     -27.195841     -28.245136     -28.245136      1.0492948    
    538000   1671.5641     -27.999111     -29.079444     -29.079444      1.0803331    
    539000   1612.4945     -27.446773     -28.48893      -28.48893       1.0421563    
    540000   1508.16       -27.317689     -28.292414     -28.292414      0.97472489   
    541000   1721.6435     -27.110077     -28.222777     -28.222777      1.1126995    
    542000   1580.095      -27.188614     -28.209831     -28.209831      1.0212166    
    543000   1634.787      -27.405773     -28.462337     -28.462337      1.056564     
    544000   1545.5466     -27.300746     -28.299634     -28.299634      0.99888788   
    545000   1639.8113     -27.312182     -28.371993     -28.371993      1.0598113    
    546000   1688.7041     -27.467998     -28.559408     -28.559408      1.0914107    
    547000   1726.7606     -27.389359     -28.505366     -28.505366      1.1160066    
    548000   1618.6906     -27.710998     -28.757159     -28.757159      1.0461609    
    549000   1641.6376     -27.415728     -28.47672      -28.47672       1.0609916    
    550000   1648.0029     -27.759157     -28.824262     -28.824262      1.0651055    
    551000   1602.9419     -27.71017      -28.746152     -28.746152      1.0359825    
    552000   1634.8978     -27.417774     -28.474409     -28.474409      1.0566356    
    553000   1659.3128     -27.369651     -28.442066     -28.442066      1.0724151    
    554000   1742.7033     -27.517824     -28.644134     -28.644134      1.1263104    
    555000   1577.095      -27.097753     -28.11703      -28.11703       1.0192776    
    556000   1797.127      -27.441327     -28.602811     -28.602811      1.1614845    
    557000   1540.302      -27.514638     -28.510136     -28.510136      0.99549831   
    558000   1651.781      -27.133412     -28.200959     -28.200959      1.0675473    
    559000   1643.2637     -27.233034     -28.295076     -28.295076      1.0620425    
    560000   1789.2846     -27.463197     -28.619613     -28.619613      1.1564159    
    561000   1620.8022     -27.091721     -28.139247     -28.139247      1.0475256    
    562000   1744.3708     -27.286598     -28.413986     -28.413986      1.1273881    
    563000   1750.7183     -27.70255      -28.83404      -28.83404       1.1314905    
    564000   1703.6758     -27.422338     -28.523425     -28.523425      1.1010869    
    565000   1691.5117     -27.596313     -28.689538     -28.689538      1.0932252    
    566000   1763.4504     -27.266797     -28.406517     -28.406517      1.1397193    
    567000   1657.4081     -27.320637     -28.391821     -28.391821      1.0711841    
    568000   1677.9112     -27.270636     -28.355071     -28.355071      1.0844352    
    569000   1715.3484     -27.745983     -28.854614     -28.854614      1.1086309    
    570000   1683.6695     -27.267134     -28.355291     -28.355291      1.0881568    
    571000   1667.1106     -27.307354     -28.384809     -28.384809      1.0774548    
    572000   1722.0995     -27.896554     -29.009548     -29.009548      1.1129942    
    573000   1702.0285     -26.729441     -27.829463     -27.829463      1.1000223    
    574000   1685.7682     -27.698315     -28.787828     -28.787828      1.0895132    
    575000   1774.7059     -26.961678     -28.108672     -28.108672      1.1469937    
    576000   1700.7627     -27.574339     -28.673543     -28.673543      1.0992041    
    577000   1864.531      -27.284047     -28.489094     -28.489094      1.2050478    
    578000   1722.888      -27.158995     -28.272499     -28.272499      1.1135038    
    579000   1723.5092     -27.686939     -28.800845     -28.800845      1.1139053    
    580000   1829.026      -26.98142      -28.16352      -28.16352       1.1821008    
    581000   1751.0035     -27.253446     -28.385121     -28.385121      1.1316748    
    582000   1760.2959     -27.444928     -28.582608     -28.582608      1.1376805    
    583000   1650.5835     -26.859261     -27.926035     -27.926035      1.0667733    
    584000   1762.1652     -27.624518     -28.763407     -28.763407      1.1388887    
    585000   1781.4267     -26.72578      -27.877118     -27.877118      1.1513374    
    586000   1771.227      -27.363233     -28.507979     -28.507979      1.1447453    
    587000   1813.6497     -27.024486     -28.19665      -28.19665       1.1721631    
    588000   1628.0285     -27.025906     -28.078102     -28.078102      1.052196     
    589000   1734.4094     -27.572263     -28.693213     -28.693213      1.12095      
    590000   1729.0148     -26.621034     -27.738497     -27.738497      1.1174635    
    591000   1812.015      -27.346526     -28.517633     -28.517633      1.1711066    
    592000   1844.6485     -27.54984      -28.742038     -28.742038      1.1921977    
    593000   1760.738      -27.042645     -28.180612     -28.180612      1.1379662    
    594000   1744.8758     -27.705545     -28.833259     -28.833259      1.1277145    
    595000   1840.0613     -27.426346     -28.615579     -28.615579      1.1892329    
    596000   1741.5219     -27.38579      -28.511336     -28.511336      1.1255469    
    597000   1819.1548     -27.480183     -28.655904     -28.655904      1.1757211    
    598000   1726.4961     -27.04051      -28.156345     -28.156345      1.1158357    
    599000   1789.1414     -27.782714     -28.939037     -28.939037      1.1563234    
    600000   1761.394      -27.145048     -28.283438     -28.283438      1.1383902    
    601000   1762.2754     -27.570275     -28.709235     -28.709235      1.1389599    
    602000   1657.689      -27.100807     -28.172172     -28.172172      1.0713656    
    603000   1823.2203     -27.552496     -28.730844     -28.730844      1.1783486    
    604000   1778.969      -27.184892     -28.334641     -28.334641      1.149749     
    605000   1860.9696     -27.14377      -28.346516     -28.346516      1.202746     
    606000   1934.1709     -27.679226     -28.929282     -28.929282      1.250056     
    607000   1911.7919     -26.886471     -28.122063     -28.122063      1.2355925    
    608000   1862.2257     -27.643288     -28.846846     -28.846846      1.2035578    
    609000   1882.8804     -27.239076     -28.455983     -28.455983      1.216907     
    610000   1724.7336     -27.248701     -28.363398     -28.363398      1.1146966    
    611000   1826.1458     -27.480121     -28.66036      -28.66036       1.1802394    
    612000   1738.6436     -27.310947     -28.434634     -28.434634      1.1236866    
    613000   1853.398      -27.327169     -28.525021     -28.525021      1.1978525    
    614000   1861.6441     -27.195708     -28.39889      -28.39889       1.2031819    
    615000   1866.0223     -27.540092     -28.746103     -28.746103      1.2060116    
    616000   1893.631      -26.884326     -28.108182     -28.108182      1.2238551    
    617000   1923.5        -27.668089     -28.911249     -28.911249      1.2431594    
    618000   1823.6107     -27.201504     -28.380105     -28.380105      1.1786009    
    619000   1784.4591     -27.489866     -28.643163     -28.643163      1.1532972    
    620000   1929.6945     -27.043431     -28.290594     -28.290594      1.247163     
    621000   1785.7897     -27.253114     -28.407271     -28.407271      1.1541572    
    622000   1963.9526     -27.213121     -28.482425     -28.482425      1.269304     
    623000   1784.3506     -27.356465     -28.509692     -28.509692      1.1532271    
    624000   1865.2718     -27.082556     -28.288083     -28.288083      1.2055265    
    625000   1894.6514     -27.255076     -28.47959      -28.47959       1.2245146    
    626000   1841.6231     -27.424534     -28.614777     -28.614777      1.1902424    
    627000   1801.8793     -26.889683     -28.054238     -28.054238      1.1645559    
    628000   1896.9126     -26.551492     -27.777468     -27.777468      1.225976     
    629000   1807.0593     -27.073012     -28.240916     -28.240916      1.1679037    
    630000   2057.1242     -26.909149     -28.238669     -28.238669      1.3295208    
    631000   1843.3585     -27.331009     -28.522373     -28.522373      1.1913639    
    632000   1876.234      -27.678714     -28.891325     -28.891325      1.2126114    
    633000   1940.7866     -26.640608     -27.89494      -27.89494       1.2543318    
    634000   1850.6889     -27.863397     -29.059498     -29.059498      1.1961016    
    635000   1922.9419     -26.874828     -28.117627     -28.117627      1.2427987    
    636000   1919.9688     -26.920989     -28.161866     -28.161866      1.2408772    
    637000   1894.6994     -27.138113     -28.362658     -28.362658      1.2245456    
    638000   1988.4714     -27.038322     -28.323472     -28.323472      1.2851505    
    639000   1983.8322     -27.357891     -28.640043     -28.640043      1.2821522    
    640000   1892.3162     -26.823122     -28.046127     -28.046127      1.2230054    
    641000   1968.8598     -27.700413     -28.972889     -28.972889      1.2724755    
    642000   1983.7467     -26.673192     -27.955289     -27.955289      1.2820969    
    643000   1947.3049     -27.403612     -28.662157     -28.662157      1.2585446    
    644000   1935.8805     -27.113917     -28.365078     -28.365078      1.251161     
    645000   1993.8549     -26.678174     -27.966803     -27.966803      1.2886298    
    646000   1926.0336     -27.436936     -28.681733     -28.681733      1.2447969    
    647000   1867.6211     -26.606842     -27.813887     -27.813887      1.2070449    
    648000   1950.5493     -27.513487     -28.774129     -28.774129      1.2606414    
    649000   2090.6733     -26.864074     -28.215278     -28.215278      1.3512037    
    650000   1835.1151     -27.486234     -28.672271     -28.672271      1.1860362    
    651000   1978.9006     -27.074012     -28.352977     -28.352977      1.2789649    
    652000   1975.5875     -27.015529     -28.292353     -28.292353      1.2768237    
    653000   1995.2267     -26.947662     -28.237178     -28.237178      1.2895164    
    654000   1886.4948     -26.713113     -27.932356     -27.932356      1.2192429    
    655000   2064.6309     -27.528343     -28.862716     -28.862716      1.3343724    
    656000   1974.2093     -26.630997     -27.90693      -27.90693       1.2759329    
    657000   1934.7675     -27.697933     -28.948375     -28.948375      1.2504416    
    658000   1980.1147     -27.136411     -28.416161     -28.416161      1.2797495    
    659000   1995.4125     -27.125811     -28.415447     -28.415447      1.2896365    
    660000   1929.5843     -27.231905     -28.478996     -28.478996      1.2470917    
    661000   1925.596      -27.144793     -28.389307     -28.389307      1.2445141    
    662000   2008.8147     -27.129951     -28.42825      -28.42825       1.2982984    
    663000   1828.5146     -26.935965     -28.117735     -28.117735      1.1817703    
    664000   2101.262      -27.544246     -28.902293     -28.902293      1.3580472    
    665000   2028.2975     -27.179923     -28.490813     -28.490813      1.3108902    
    666000   1951.3778     -26.826048     -28.087225     -28.087225      1.2611769    
    667000   1942.0105     -27.186889     -28.442012     -28.442012      1.2551228    
    668000   2001.167      -26.7306       -28.023956     -28.023956      1.2933557    
    669000   1944.078      -26.879218     -28.135677     -28.135677      1.256459     
    670000   2052.0903     -27.115951     -28.442219     -28.442219      1.3262675    
    671000   1985.6428     -26.670974     -27.954297     -27.954297      1.2833224    
    672000   2016.579      -27.242349     -28.545665     -28.545665      1.3033165    
    673000   2014.8318     -27.060171     -28.362359     -28.362359      1.3021873    
    674000   2029.0619     -27.163879     -28.475263     -28.475263      1.3113842    
    675000   1930.7091     -27.216302     -28.46412      -28.46412       1.2478187    
    676000   2127.5553     -26.871737     -28.246777     -28.246777      1.3750406    
    677000   1985.511      -26.950637     -28.233874     -28.233874      1.2832372    
    678000   2094.9392     -27.19363      -28.547591     -28.547591      1.3539607    
    679000   2088.1705     -26.759866     -28.109452     -28.109452      1.3495861    
    680000   2039.43       -27.641186     -28.959271     -28.959271      1.3180851    
    681000   2006.235      -26.621257     -27.917888     -27.917888      1.2966311    
    682000   1967.2573     -27.372557     -28.643997     -28.643997      1.2714398    
    683000   2050.2954     -27.011356     -28.336464     -28.336464      1.3251074    
    684000   2106.908      -26.91162      -28.273316     -28.273316      1.3616962    
    685000   2082.7473     -27.540182     -28.886263     -28.886263      1.3460811    
    686000   2159.043      -26.944778     -28.340169     -28.340169      1.3953911    
    687000   2085.6302     -27.331814     -28.679758     -28.679758      1.3479443    
    688000   2037.6473     -27.243084     -28.560017     -28.560017      1.3169329    
    689000   2026.3918     -26.958006     -28.267665     -28.267665      1.3096585    
    690000   2148.7985     -27.002523     -28.391293     -28.391293      1.38877      
    691000   2002.1771     -26.962003     -28.256012     -28.256012      1.2940085    
    692000   2135.1224     -27.487991     -28.867922     -28.867922      1.3799312    
    693000   2061.1452     -25.760726     -27.092846     -27.092846      1.3321196    
    694000   2027.8931     -27.334855     -28.645484     -28.645484      1.3106288    
    695000   2181.9992     -26.497695     -27.907923     -27.907923      1.4102277    
    696000   2059.8092     -27.18331      -28.514566     -28.514566      1.3312562    
    697000   2044.306      -27.104662     -28.425899     -28.425899      1.3212365    
    698000   2011.3654     -26.962908     -28.262855     -28.262855      1.2999469    
    699000   2066.7904     -26.883615     -28.219383     -28.219383      1.3357682    
    700000   1978.9799     -26.684604     -27.96362      -27.96362       1.2790161    
    701000   1998.6025     -27.288918     -28.580617     -28.580617      1.2916982    
    702000   2216.4606     -26.516599     -27.9491       -27.9491        1.4325001    
    703000   1988.3173     -27.235633     -28.520684     -28.520684      1.2850509    
    704000   2136.5791     -26.76937      -28.150243     -28.150243      1.3808726    
    705000   2076.4554     -26.6372       -27.979215     -27.979215      1.3420146    
    706000   2177.1455     -26.890882     -28.297973     -28.297973      1.4070907    
    707000   2166.3892     -26.898013     -28.298152     -28.298152      1.4001389    
    708000   2200.2092     -27.171319     -28.593316     -28.593316      1.4219968    
    709000   2076.9543     -27.022733     -28.36507      -28.36507       1.3423371    
    710000   2268.1778     -26.556795     -28.02272      -28.02272       1.4659249    
    711000   2100.3841     -27.423325     -28.780805     -28.780805      1.3574798    
    712000   2184.9009     -26.82594      -28.238043     -28.238043      1.412103     
    713000   2168.3758     -26.477993     -27.879416     -27.879416      1.4014228    
    714000   2196.1866     -27.089797     -28.509194     -28.509194      1.419397     
    715000   2130.3774     -26.767128     -28.143993     -28.143993      1.3768645    
    716000   2119.4626     -27.072901     -28.442711     -28.442711      1.3698102    
    717000   2144.4955     -26.819236     -28.205225     -28.205225      1.385989     
    718000   2139.1138     -26.959263     -28.341774     -28.341774      1.3825108    
    719000   2142.4889     -27.01365      -28.398342     -28.398342      1.3846922    
    720000   2179.1825     -26.316389     -27.724796     -27.724796      1.4084072    
    721000   2294.6167     -26.966877     -28.44989      -28.44989       1.4830125    
    722000   2189.5252     -26.639245     -28.054337     -28.054337      1.4150917    
    723000   2213.1865     -27.148501     -28.578885     -28.578885      1.430384     
    724000   2174.5913     -27.154104     -28.559544     -28.559544      1.4054399    
    725000   2084.0547     -26.729252     -28.076178     -28.076178      1.3469261    
    726000   2248.0219     -27.035012     -28.48791      -28.48791       1.4528982    
    727000   2193.5538     -26.842659     -28.260355     -28.260355      1.4176954    
    728000   2264.2229     -27.093452     -28.556821     -28.556821      1.4633689    
    729000   2063.8392     -27.153287     -28.487148     -28.487148      1.3338608    
    730000   2350.9382     -26.370414     -27.889827     -27.889827      1.5194131    
    731000   2143.2986     -26.934494     -28.31971      -28.31971       1.3852155    
    732000   2232.7414     -26.868634     -28.311656     -28.311656      1.4430224    
    733000   2024.1999     -26.909538     -28.217779     -28.217779      1.3082419    
    734000   2190.0912     -26.775037     -28.190495     -28.190495      1.4154575    
    735000   2239.55       -26.78511      -28.232533     -28.232533      1.4474228    
    736000   2248.8175     -26.184222     -27.637635     -27.637635      1.4534124    
    737000   2132.82       -26.974157     -28.3526       -28.3526        1.3784431    
    738000   2286.1714     -27.021708     -28.499263     -28.499263      1.4775542    
    739000   2264.3064     -26.706835     -28.170258     -28.170258      1.4634229    
    740000   2030.5172     -26.79594      -28.108265     -28.108265      1.3123247    
    741000   2240.6473     -26.878636     -28.326768     -28.326768      1.448132     
    742000   2245.5121     -26.918423     -28.369699     -28.369699      1.4512761    
    743000   2306.7628     -26.364532     -27.855395     -27.855395      1.4908625    
    744000   2170.1488     -26.950615     -28.353184     -28.353184      1.4025687    
    745000   2362.4877     -27.203717     -28.730595     -28.730595      1.5268775    
    746000   1947.8639     -25.85943      -27.118336     -27.118336      1.2589059    
    747000   2228.0761     -27.576284     -29.016291     -29.016291      1.4400072    
    748000   2398.4215     -26.548349     -28.098451     -28.098451      1.5501015    
    749000   2171.698      -26.756994     -28.160564     -28.160564      1.40357      
    750000   2274.5845     -27.096942     -28.567007     -28.567007      1.4700656    
    751000   2308.9899     -26.719947     -28.212249     -28.212249      1.4923018    
    752000   2254.7299     -26.926683     -28.383916     -28.383916      1.4572336    
    753000   2121.5414     -26.391547     -27.7627       -27.7627        1.3711537    
    754000   2347.5582     -27.237493     -28.754722     -28.754722      1.5172286    
    755000   2219.7087     -26.368543     -27.803142     -27.803142      1.4345993    
    756000   2277.7501     -27.230477     -28.702588     -28.702588      1.4721115    
    757000   2201.5406     -26.306948     -27.729805     -27.729805      1.4228573    
    758000   2185.3756     -26.760236     -28.172646     -28.172646      1.4124098    
    759000   2250.7076     -26.461489     -27.916123     -27.916123      1.4546339    
    760000   2176.7113     -26.496544     -27.903354     -27.903354      1.4068101    
    761000   2224.7233     -27.293287     -28.731127     -28.731127      1.4378403    
    762000   2420.8913     -26.494012     -28.058636     -28.058636      1.5646238    
    763000   2281.7127     -26.654162     -28.128834     -28.128834      1.4746726    
    764000   2477.3329     -26.790934     -28.392036     -28.392036      1.601102     
    765000   2483.0324     -26.659674     -28.26446      -28.26446       1.6047856    
    766000   2106.581      -26.659088     -28.020573     -28.020573      1.3614848    
    767000   2403.9087     -26.990765     -28.544413     -28.544413      1.553648     
    768000   2165.9875     -26.17141      -27.57129      -27.57129       1.3998793    
    769000   2320.7523     -26.878898     -28.378802     -28.378802      1.4999039    
    770000   2338.9766     -26.382252     -27.893934     -27.893934      1.5116823    
    771000   2291.6994     -26.647533     -28.12866      -28.12866       1.481127     
    772000   2268.1211     -26.910726     -28.376614     -28.376614      1.4658883    
    773000   2372.9171     -26.481888     -28.015506     -28.015506      1.533618     
    774000   2313.8559     -26.660815     -28.156262     -28.156262      1.4954467    
    775000   2260.482      -26.943619     -28.404571     -28.404571      1.4609512    
    776000   2287.9643     -26.549728     -28.028441     -28.028441      1.478713     
    777000   2426.149      -26.33759      -27.905612     -27.905612      1.5680219    
    778000   2313.4346     -27.097592     -28.592767     -28.592767      1.4951745    
    779000   2332.234      -26.838439     -28.345763     -28.345763      1.5073245    
    780000   2312.141      -26.621682     -28.11602      -28.11602       1.4943384    
    781000   2302.429      -26.929474     -28.417535     -28.417535      1.4880615    
    782000   2341.3094     -26.424527     -27.937717     -27.937717      1.51319      
    783000   2359.5906     -27.093187     -28.618192     -28.618192      1.5250051    
    784000   2341.6747     -26.843191     -28.356617     -28.356617      1.513426     
    785000   2296.8947     -26.810808     -28.295293     -28.295293      1.4844847    
    786000   2409.5964     -26.510524     -28.067848     -28.067848      1.5573239    
    787000   2387.6985     -27.127383     -28.670554     -28.670554      1.5431713    
    788000   2337.7388     -26.668872     -28.179754     -28.179754      1.5108823    
    789000   2352.9099     -27.038222     -28.55891      -28.55891       1.5206874    
    790000   2301.4753     -26.764883     -28.252328     -28.252328      1.4874452    
    791000   2387.1843     -26.591897     -28.134736     -28.134736      1.542839     
    792000   2391.7619     -27.063834     -28.609632     -28.609632      1.5457975    
    793000   2398.6817     -26.452744     -28.003014     -28.003014      1.5502697    
    794000   2341.2491     -26.570408     -28.083559     -28.083559      1.513151     
    795000   2371.2776     -26.424088     -27.956646     -27.956646      1.5325584    
    796000   2405.5963     -26.639669     -28.194407     -28.194407      1.5547386    
    797000   2295.9459     -26.75612      -28.239992     -28.239992      1.4838715    
    798000   2289.284      -25.987816     -27.467382     -27.467382      1.4795659    
    799000   2245.8875     -26.805618     -28.257137     -28.257137      1.4515187    
    800000   2434.1569     -25.421444     -26.994641     -26.994641      1.5731974    
    801000   2316.06       -27.180394     -28.677265     -28.677265      1.4968713    
    802000   2263.4108     -26.547842     -28.010686     -28.010686      1.462844     
    803000   2317.4821     -26.067855     -27.565646     -27.565646      1.4977904    
    804000   2409.2623     -26.285893     -27.843001     -27.843001      1.557108     
    805000   2521.5169     -26.656226     -28.285884     -28.285884      1.6296582    
    806000   2427.2191     -27.03443      -28.603143     -28.603143      1.5687135    
    807000   2380.3103     -26.08422      -27.622616     -27.622616      1.5383963    
    808000   2481.8767     -26.778786     -28.382825     -28.382825      1.6040387    
    809000   2513.9216     -26.260635     -27.885384     -27.885384      1.6247494    
    810000   2390.6431     -26.553519     -28.098594     -28.098594      1.5450744    
    811000   2483.6261     -26.724765     -28.329935     -28.329935      1.6051694    
    812000   2366.5209     -25.479589     -27.009073     -27.009073      1.5294842    
    813000   2379.379      -27.351579     -28.889373     -28.889373      1.5377944    
    814000   2507.0212     -26.531691     -28.151981     -28.151981      1.6202896    
    815000   2473.1376     -26.856825     -28.455216     -28.455216      1.5983906    
    816000   2402.2536     -26.276082     -27.82866      -27.82866       1.5525782    
    817000   2539.8105     -26.607778     -28.249259     -28.249259      1.6414814    
    818000   2561.1358     -26.983205     -28.638469     -28.638469      1.6552639    
    819000   2432.3937     -26.275921     -27.847979     -27.847979      1.5720578    
    820000   2393.3602     -27.084927     -28.631757     -28.631757      1.5468304    
    821000   2361.8477     -26.289374     -27.815838     -27.815838      1.5264639    
    822000   2492.5647     -25.91477      -27.525716     -27.525716      1.6109464    
    823000   2630.6851     -26.742218     -28.442432     -28.442432      1.7002137    
    824000   2509.3063     -26.458796     -28.080562     -28.080562      1.6217665    
    825000   2402.1367     -26.497217     -28.04972      -28.04972       1.5525027    
    826000   2345.0615     -26.602853     -28.118468     -28.118468      1.515615     
    827000   2600.4403     -26.83303      -28.513696     -28.513696      1.6806665    
    828000   2396.1647     -26.476762     -28.025405     -28.025405      1.548643     
    829000   2448.4486     -26.42558      -28.008014     -28.008014      1.5824341    
    830000   2500.0717     -26.645754     -28.261552     -28.261552      1.6157981    
    831000   2594.0254     -26.419382     -28.095903     -28.095903      1.6765205    
    832000   2499.4418     -26.346803     -27.962194     -27.962194      1.615391     
    833000   2566.9438     -26.506137     -28.165154     -28.165154      1.6590176    
    834000   2439.8169     -26.743814     -28.320669     -28.320669      1.5768554    
    835000   2477.0687     -26.946698     -28.54763      -28.54763       1.6009313    
    836000   2545.1179     -26.357181     -28.002092     -28.002092      1.6449116    
    837000   2510.2352     -26.724798     -28.347165     -28.347165      1.6223668    
    838000   2533.0342     -26.839023     -28.476125     -28.476125      1.6371018    
    839000   2477.4566     -26.812532     -28.413714     -28.413714      1.601182     
    840000   2501.052      -26.335431     -27.951862     -27.951862      1.6164317    
    841000   2534.8837     -26.629438     -28.267735     -28.267735      1.6382972    
    842000   2522.8902     -26.931493     -28.562039     -28.562039      1.6305458    
    843000   2427.0438     -26.199261     -27.767861     -27.767861      1.5686002    
    844000   2510.5157     -26.894467     -28.517015     -28.517015      1.6225481    
    845000   2553.0756     -26.66206      -28.312115     -28.312115      1.6500546    
    846000   2457.5116     -26.342707     -27.930999     -27.930999      1.5882915    
    847000   2667.7244     -26.888901     -28.613053     -28.613053      1.7241522    
    848000   2529.7489     -26.014031     -27.649009     -27.649009      1.6349785    
    849000   2688.2417     -26.413281     -28.150694     -28.150694      1.7374125    
    850000   2592.7996     -26.848099     -28.523828     -28.523828      1.6757282    
    851000   2610.9006     -25.619287     -27.306714     -27.306714      1.6874269    
    852000   2361.0131     -26.188804     -27.714729     -27.714729      1.5259245    
    853000   2720.7336     -26.864197     -28.622609     -28.622609      1.7584121    
    854000   2452.5019     -25.129421     -26.714475     -26.714475      1.5850537    
    855000   2675.3582     -26.562516     -28.291602     -28.291602      1.7290859    
    856000   2558.5591     -26.543543     -28.197142     -28.197142      1.6535986    
    857000   2638.2203     -25.56443      -27.269514     -27.269514      1.7050837    
    858000   2732.5543     -27.311123     -29.077174     -29.077174      1.7660518    
    859000   2550.4959     -25.68341      -27.331798     -27.331798      1.6483873    
    860000   2476.0473     -26.732211     -28.332483     -28.332483      1.6002712    
    861000   2668.2175     -26.72557      -28.450041     -28.450041      1.7244709    
    862000   2534.5884     -26.404163     -28.042269     -28.042269      1.6381063    
    863000   2532.5357     -26.855697     -28.492476     -28.492476      1.6367797    
    864000   2756.6874     -25.528536     -27.310185     -27.310185      1.7816491    
    865000   2480.4081     -27.181007     -28.784096     -28.784096      1.6030895    
    866000   2638.9138     -25.891981     -27.597513     -27.597513      1.7055319    
    867000   2508.587      -25.865539     -27.48684      -27.48684       1.6213016    
    868000   2632.281      -26.470361     -28.171606     -28.171606      1.7012451    
    869000   2375.0914     -26.237141     -27.772164     -27.772164      1.5350233    
    870000   2682.438      -26.235365     -27.969026     -27.969026      1.7336616    
    871000   2756.5452     -25.384575     -27.166133     -27.166133      1.7815571    
    872000   2688.8579     -27.148664     -28.886474     -28.886474      1.7378108    
[...]
   1888000   669.59408     -30.520533     -30.953292     -30.953292      0.43275914   
   1889000   582.3039      -30.170637     -30.546981     -30.546981      0.37634343   
   1890000   627.12969     -30.59995      -31.005265     -31.005265      0.40531437   
   1891000   678.04827     -30.446676     -30.884899     -30.884899      0.43822309   
   1892000   571.72452     -30.479824     -30.84933      -30.84933       0.36950597   
   1893000   597.42881     -30.672823     -31.058942     -31.058942      0.38611867   
   1894000   668.70883     -30.15041      -30.582597     -30.582597      0.432187     
   1895000   628.99786     -30.803706     -31.210228     -31.210228      0.40652177   
   1896000   603.70797     -30.200495     -30.590672     -30.590672      0.3901769    
   1897000   623.29467     -30.640378     -31.043214     -31.043214      0.4028358    
   1898000   606.71496     -30.540207     -30.932328     -30.932328      0.39212032   
   1899000   592.52842     -30.604454     -30.987405     -30.987405      0.38295155   
   1900000   625.50515     -30.411269     -30.815534     -30.815534      0.40426443   
   1901000   562.55893     -30.575016     -30.938598     -30.938598      0.36358224   
   1902000   586.98041     -30.653186     -31.032552     -31.032552      0.37936587   
   1903000   584.52592     -30.479404     -30.857184     -30.857184      0.37777953   
   1904000   594.09691     -30.44573      -30.829695     -30.829695      0.38396526   
   1905000   592.8116      -30.362921     -30.746056     -30.746056      0.38313457   
   1906000   552.25357     -30.586607     -30.943529     -30.943529      0.35692188   
   1907000   654.29241     -30.176649     -30.599518     -30.599518      0.42286966   
   1908000   552.38155     -30.585375     -30.94238      -30.94238       0.3570046    
   1909000   584.30271     -30.285986     -30.663621     -30.663621      0.37763526   
   1910000   599.9252      -30.490732     -30.878464     -30.878464      0.38773209   
   1911000   605.29068     -30.616022     -31.007222     -31.007222      0.3911998    
   1912000   560.5275      -30.418821     -30.78109      -30.78109       0.36226933   
   1913000   591.80742     -30.814709     -31.197194     -31.197194      0.38248556   
   1914000   504.1615      -30.390331     -30.716171     -30.716171      0.32583995   
   1915000   548.2746      -30.64116      -30.99551      -30.99551       0.35435027   
   1916000   514.76419     -30.438125     -30.770817     -30.770817      0.33269247   
   1917000   542.77145     -30.678742     -31.029536     -31.029536      0.35079358   
   1918000   556.57809     -30.416098     -30.775815     -30.775815      0.35971682   
   1919000   521.15199     -30.661946     -30.998767     -30.998767      0.33682091   
   1920000   515.06987     -30.503711     -30.836601     -30.836601      0.33289003   
   1921000   533.34236     -30.522639     -30.867338     -30.867338      0.34469955   
   1922000   534.07051     -30.774459     -31.11963      -31.11963       0.34517016   
   1923000   508.80465     -30.29306      -30.621901     -30.621901      0.32884081   
   1924000   540.72017     -30.712725     -31.062193     -31.062193      0.34946784   
   1925000   533.07511     -30.357176     -30.701703     -30.701703      0.34452683   
   1926000   499.91455     -30.579394     -30.902489     -30.902489      0.32309514   
   1927000   552.27485     -30.648224     -31.00516      -31.00516       0.35693564   
   1928000   486.34676     -30.648783     -30.963109     -30.963109      0.31432627   
   1929000   496.40617     -30.560203     -30.88103      -30.88103       0.32082766   
   1930000   516.22828     -30.682268     -31.015907     -31.015907      0.33363871   
   1931000   512.38667     -30.683239     -31.014395     -31.014395      0.33115588   
   1932000   466.2704      -30.700758     -31.002109     -31.002109      0.3013509    
   1933000   483.38823     -30.795712     -31.108126     -31.108126      0.31241416   
   1934000   494.78769     -30.605347     -30.925128     -30.925128      0.31978165   
   1935000   476.34823     -30.712704     -31.020568     -31.020568      0.30786421   
   1936000   476.78617     -30.458041     -30.766188     -30.766188      0.30814725   
   1937000   502.57915     -30.744868     -31.069685     -31.069685      0.32481727   
   1938000   464.02617     -30.583821     -30.883721     -30.883721      0.29990045   
   1939000   451.32708     -30.632513     -30.924206     -30.924206      0.29169302   
   1940000   462.36282     -30.845289     -31.144114     -31.144114      0.29882542   
   1941000   504.6668      -30.563759     -30.889926     -30.889926      0.32616652   
   1942000   468.75392     -30.798169     -31.101125     -31.101125      0.302956     
   1943000   476.02395     -30.540248     -30.847903     -30.847903      0.30765463   
   1944000   510.94767     -30.629397     -30.959623     -30.959623      0.33022585   
   1945000   430.03274     -30.846299     -31.12423      -31.12423       0.27793047   
   1946000   434.08041     -30.469167     -30.749714     -30.749714      0.28054648   
   1947000   441.83032     -30.595125     -30.88068      -30.88068       0.28555525   
   1948000   442.37593     -30.785873     -31.071781     -31.071781      0.28590788   
   1949000   421.39708     -30.692522     -30.964871     -30.964871      0.27234924   
   1950000   443.8437      -30.807613     -31.094469     -31.094469      0.28685651   
   1951000   458.90959     -30.698463     -30.995057     -30.995057      0.2965936    
   1952000   408.1024      -30.665472     -30.929229     -30.929229      0.26375688   
   1953000   426.84517     -30.837321     -31.113192     -31.113192      0.27587034   
   1954000   428.88613     -30.576101     -30.853291     -30.853291      0.27718942   
   1955000   437.65657     -30.961292     -31.24415      -31.24415       0.28285776   
   1956000   436.78301     -30.109945     -30.392238     -30.392238      0.28229318   
   1957000   457.81582     -30.818588     -31.114475     -31.114475      0.2958867    
   1958000   403.52482     -30.743569     -31.004367     -31.004367      0.26079839   
   1959000   402.37508     -30.352101     -30.612157     -30.612157      0.26005531   
   1960000   417.35373     -30.95927      -31.229006     -31.229006      0.26973602   
   1961000   421.03974     -30.361649     -30.633768     -30.633768      0.27211829   
   1962000   393.53274     -30.856889     -31.111229     -31.111229      0.25434049   
   1963000   424.56299     -30.744123     -31.018518     -31.018518      0.27439537   
   1964000   401.03479     -30.754768     -31.013958     -31.013958      0.25918907   
   1965000   454.82027     -30.784566     -31.078516     -31.078516      0.29395067   
   1966000   412.693       -30.586555     -30.853278     -30.853278      0.26672379   
   1967000   421.69562     -30.852464     -31.125006     -31.125006      0.27254218   
   1968000   385.0671      -30.587426     -30.836295     -30.836295      0.24886915   
   1969000   385.5689      -30.918737     -31.16793      -31.16793       0.24919346   
   1970000   384.98791     -30.485068     -30.733885     -30.733885      0.24881797   
   1971000   382.02757     -31.011106     -31.258011     -31.258011      0.24690469   
   1972000   361.28435     -30.593521     -30.82702      -30.82702       0.23349834   
   1973000   375.86972     -30.870836     -31.113761     -31.113761      0.24292487   
   1974000   391.9744      -30.713089     -30.966423     -30.966423      0.25333334   
   1975000   359.70189     -30.768824     -31.0013       -31.0013        0.23247559   
   1976000   371.44088     -30.916214     -31.156277     -31.156277      0.24006251   
   1977000   374.36429     -30.499958     -30.741909     -30.741909      0.24195191   
   1978000   347.03285     -31.021427     -31.245715     -31.245715      0.22428758   
   1979000   395.93662     -30.52377      -30.779664     -30.779664      0.25589412   
   1980000   346.89302     -30.947207     -31.171404     -31.171404      0.22419721   
   1981000   392.30588     -30.718506     -30.972053     -30.972053      0.25354757   
   1982000   358.45679     -30.831071     -31.062742     -31.062742      0.23167089   
   1983000   363.04359     -30.934486     -31.169121     -31.169121      0.23463534   
   1984000   348.45836     -30.52078      -30.745989     -30.745989      0.22520889   
   1985000   341.42998     -30.955001     -31.175667     -31.175667      0.22066644   
   1986000   353.52168     -30.631013     -30.859494     -30.859494      0.22848132   
   1987000   340.39371     -30.821263     -31.04126      -31.04126       0.2199967    
   1988000   338.87317     -30.882426     -31.10144      -31.10144       0.21901397   
   1989000   371.92156     -30.781914     -31.022287     -31.022287      0.24037317   
   1990000   315.84809     -30.850495     -31.054627     -31.054627      0.20413285   
   1991000   326.43959     -30.941146     -31.152124     -31.152124      0.21097814   
   1992000   315.78368     -30.748766     -30.952857     -30.952857      0.20409122   
   1993000   328.71332     -30.92965      -31.142098     -31.142098      0.21244766   
   1994000   335.0782      -30.828776     -31.045338     -31.045338      0.21656128   
   1995000   314.61303     -30.944137     -31.147471     -31.147471      0.20333463   
   1996000   332.22809     -30.718075     -30.932794     -30.932794      0.21471925   
   1997000   292.65109     -30.966832     -31.155973     -31.155973      0.18914061   
   1998000   333.88581     -30.952956     -31.168746     -31.168746      0.21579064   
   1999000   291.76622     -30.882353     -31.070921     -31.070921      0.18856872   
   2000000   308.80117     -31.032388     -31.231966     -31.231966      0.19957842   
   2001000   319.93402     -30.750447     -30.95722      -30.95722       0.20677359   
   2002000   283.02406     -30.907963     -31.090882     -31.090882      0.18291866   
   2003000   311.16845     -31.020478     -31.221586     -31.221586      0.2011084    
   2004000   281.26118     -30.775912     -30.957691     -30.957691      0.18177931   
   2005000   288.73603     -30.920924     -31.107534     -31.107534      0.18661031   
   2006000   281.83982     -30.971165     -31.153319     -31.153319      0.18215328   
   2007000   263.05754     -30.888376     -31.058391     -31.058391      0.17001428   
   2008000   278.86753     -31.009913     -31.190145     -31.190145      0.18023229   
   2009000   269.54805     -30.755504     -30.929713     -30.929713      0.1742091    
   2010000   259.01478     -30.967645     -31.135046     -31.135046      0.16740144   
   2011000   260.40229     -31.052411     -31.220709     -31.220709      0.16829819   
   2012000   288.06124     -30.771608     -30.957783     -30.957783      0.18617419   
   2013000   246.63573     -31.068186     -31.227587     -31.227587      0.15940085   
   2014000   274.99426     -30.847569     -31.025298     -31.025298      0.17772899   
   2015000   251.2004      -31.059208     -31.221559     -31.221559      0.162351     
   2016000   246.82206     -30.860963     -31.020484     -31.020484      0.15952127   
   2017000   252.81193     -30.999543     -31.162936     -31.162936      0.16339254   
   2018000   246.99484     -30.979147     -31.13878      -31.13878       0.15963294   
   2019000   232.12699     -30.901019     -31.051043     -31.051043      0.15002384   
   2020000   226.05229     -31.08944      -31.235538     -31.235538      0.14609776   
   2021000   264.8762      -30.815266     -30.986456     -30.986456      0.17118968   
   2022000   242.9501      -31.054419     -31.211437     -31.211437      0.15701882   
   2023000   223.27334     -30.957432     -31.101734     -31.101734      0.14430172   
   2024000   232.65925     -30.989014     -31.139381     -31.139381      0.15036784   
   2025000   219.44024     -31.085317     -31.227141     -31.227141      0.14182439   
   2026000   217.99619     -30.859723     -31.000614     -31.000614      0.1408911    
   2027000   213.27781     -31.066116     -31.203958     -31.203958      0.1378416    
   2028000   233.66029     -31.010582     -31.161597     -31.161597      0.15101481   
   2029000   183.48867     -30.996427     -31.115016     -31.115016      0.11858886   
   2030000   207.03054     -30.996485     -31.130289     -31.130289      0.13380399   
   2031000   203.68115     -31.051143     -31.182782     -31.182782      0.13163927   
   2032000   208.49249     -30.958762     -31.093511     -31.093511      0.13474885   
   2033000   182.11205     -31.02601      -31.143709     -31.143709      0.11769915   
   2034000   220.06442     -31.108469     -31.250697     -31.250697      0.1422278    
   2035000   183.39812     -31.00817      -31.126701     -31.126701      0.11853034   
   2036000   186.00774     -31.043702     -31.163919     -31.163919      0.12021694   
   2037000   196.60473     -31.07385      -31.200916     -31.200916      0.12706578   
   2038000   202.79715     -30.991431     -31.122499     -31.122499      0.13106795   
   2039000   167.46985     -31.018751     -31.126987     -31.126987      0.10823588   
   2040000   176.19011     -31.106553     -31.220425     -31.220425      0.1138718    
   2041000   198.10818     -30.952404     -31.080441     -31.080441      0.12803746   
   2042000   170.00058     -31.143274     -31.253146     -31.253146      0.1098715    
   2043000   176.62062     -31.052727     -31.166877     -31.166877      0.11415004   
   2044000   140.58454     -31.019436     -31.110296     -31.110296      0.090859893  
   2045000   162.50303     -31.146269     -31.251295     -31.251295      0.10502582   
   2046000   166.91147     -31.112592     -31.220467     -31.220467      0.10787501   
   2047000   167.34518     -31.0851       -31.193255     -31.193255      0.10815531   
   2048000   155.44604     -31.081162     -31.181627     -31.181627      0.10046489   
   2049000   160.26934     -31.13276      -31.236342     -31.236342      0.10358219   
   2050000   138.40713     -31.002736     -31.092189     -31.092189      0.089452631  
   2051000   141.18618     -31.164119     -31.255368     -31.255368      0.091248728  
   2052000   142.78183     -31.119865     -31.212145     -31.212145      0.092280001  
   2053000   121.73663     -31.005815     -31.084494     -31.084494      0.078678475  
   2054000   129.85061     -31.197926     -31.281849     -31.281849      0.083922544  
   2055000   132.77736     -31.087335     -31.173149     -31.173149      0.085814104  
   2056000   132.85037     -31.136568     -31.222429     -31.222429      0.085861292  
   2057000   131.55431     -31.189188     -31.274211     -31.274211      0.085023648  
   2058000   111.04357     -30.977445     -31.049213     -31.049213      0.071767537  
   2059000   118.29314     -31.207995     -31.284448     -31.284448      0.076452944  
   2060000   116.76409     -31.055079     -31.130544     -31.130544      0.075464716  
   2061000   119.31923     -31.197778     -31.274895     -31.274895      0.077116102  
   2062000   102.26599     -31.130538     -31.196633     -31.196633      0.066094584  
   2063000   107.27235     -31.194324     -31.263654     -31.263654      0.0693302    
   2064000   110.09949     -31.163653     -31.23481      -31.23481       0.07115738   
   2065000   100.62252     -31.169846     -31.234878     -31.234878      0.065032405  
   2066000   110.69892     -31.156696     -31.228241     -31.228241      0.071544794  
   2067000   92.540318     -31.187576     -31.247385     -31.247385      0.059808875  
   2068000   98.671836     -31.186295     -31.250066     -31.250066      0.063771679  
   2069000   86.467713     -31.182505     -31.23839      -31.23839       0.055884146  
   2070000   90.978288     -31.211301     -31.270101     -31.270101      0.058799333  
   2071000   85.695318     -31.222825     -31.278209     -31.278209      0.055384946  
   2072000   72.502977     -31.183413     -31.230272     -31.230272      0.046858726  
   2073000   74.126303     -31.168187     -31.216095     -31.216095      0.047907884  
   2074000   70.869886     -31.224693     -31.270497     -31.270497      0.045803259  
   2075000   74.352689     -31.186403     -31.234457     -31.234457      0.048054197  
   2076000   75.281622     -31.213218     -31.261872     -31.261872      0.048654567  
   2077000   70.680225     -31.248349     -31.29403      -31.29403       0.045680681  
   2078000   69.560558     -31.200898     -31.245856     -31.245856      0.044957039  
   2079000   60.718478     -31.196246     -31.235488     -31.235488      0.039242396  
   2080000   57.705399     -31.253236     -31.290531     -31.290531      0.037295042  
   2081000   56.037891     -31.185116     -31.221333     -31.221333      0.036217329  
   2082000   58.135067     -31.25533      -31.292903     -31.292903      0.037572736  
   2083000   55.034916     -31.217617     -31.253186     -31.253186      0.035569106  
   2084000   47.880074     -31.264935     -31.29588      -31.29588       0.030944926  
   2085000   39.663151     -31.258391     -31.284026     -31.284026      0.025634323  
   2086000   39.224308     -31.227419     -31.252769     -31.252769      0.025350699  
   2087000   36.043611     -31.262826     -31.286121     -31.286121      0.023295012  
   2088000   40.362791     -31.275282     -31.301368     -31.301368      0.026086501  
   2089000   33.513616     -31.262567     -31.284226     -31.284226      0.021659874  
   2090000   30.639965     -31.280548     -31.300351     -31.300351      0.019802631  
   2091000   27.191715     -31.279094     -31.296668     -31.296668      0.017574025  
   2092000   26.202327     -31.272617     -31.289551     -31.289551      0.016934583  
   2093000   23.009981     -31.295768     -31.31064      -31.31064       0.014871367  
   2094000   16.297384     -31.287952     -31.298486     -31.298486      0.010533011  
   2095000   15.664446     -31.289368     -31.299492     -31.299492      0.010123943  
   2096000   11.471778     -31.302012     -31.309426     -31.309426      0.0074142185 
   2097000   9.1890522     -31.302643     -31.308582     -31.308582      0.0059388911 
   2098000   6.4978506     -31.308034     -31.312233     -31.312233      0.0041995656 
   2099000   3.6146196     -31.310678     -31.313014     -31.313014      0.0023361312 
   2100000   0.21120272    -31.313828     -31.313964     -31.313964      0.00013650047
   2100056   0.02748713    -31.313963     -31.313981     -31.313981      1.7764952e-05
Loop time of 4.98182 on 1 procs for 1000000 steps with 6 atoms

Performance: 1734.306 ns/day, 0.014 hours/ns, 200729.902 timesteps/s, 1.204 Matom-step/s
94.8% CPU use with 1 MPI tasks x 1 OpenMP threads

MPI task timing breakdown:
Section |  min time  |  avg time  |  max time  |%varavg| %total
---------------------------------------------------------------
Pair    | 3.2868     | 3.2868     | 3.2868     |   0.0 | 65.98
Neigh   | 0.16871    | 0.16871    | 0.16871    |   0.0 |  3.39
Comm    | 0.21818    | 0.21818    | 0.21818    |   0.0 |  4.38
Output  | 0.22713    | 0.22713    | 0.22713    |   0.0 |  4.56
Modify  | 0.85328    | 0.85328    | 0.85328    |   0.0 | 17.13
Other   |            | 0.2277     |            |       |  4.57

Nlocal:              6 ave           6 max           6 min
Histogram: 1 0 0 0 0 0 0 0 0 0
Nghost:             22 ave          22 max          22 min
Histogram: 1 0 0 0 0 0 0 0 0 0
Neighs:              0 ave           0 max           0 min
Histogram: 1 0 0 0 0 0 0 0 0 0
FullNghs:           30 ave          30 max          30 min
Histogram: 1 0 0 0 0 0 0 0 0 0

Total # of neighbors = 30
Ave neighs/atom = 5
Neighbor list builds = 14139
Dangerous builds = 0
write_restart 	./endconf/endconf*3.restart
System init for write_restart ...

Total wall time: 0:00:10
