LAMMPS (7 Feb 2024 - Update 1)
OMP_NUM_THREADS environment is not set. Defaulting to 1 thread. (src/comm.cpp:98)
  using 1 OpenMP thread(s) per MPI task
#============Initialization=================
units 			metal
atom_style 		atomic
boundary 		p p p

############################################
#              CLI Variables               #
############################################
variable 		seed index 200093          #
variable 		N index 8                  #
variable 		iter index 1000000000      #
variable 		iterther index 1000000     #
variable 		iexport index 1000000      #
variable 		tempchauf index 3000       #
variable 		Tdamp index 0.001          #
variable 		timestep index 0.0001      #
############################################
############################################
#=========Simulation box definition=========
lattice 		sc 1.0
Lattice spacing in x,y,z = 1 1 1
region 			bigbox block 0 100 0 100 0 100
create_box 		1 bigbox
Created orthogonal box = (0 0 0) to (100 100 100)
  1 by 1 by 1 MPI processor grid

#==================Atoms====================
region 			safezone block 10 90 10 90 10 90 units box
create_atoms 	1 random ${N} ${seed} safezone
create_atoms 	1 random 8 ${seed} safezone
create_atoms 	1 random 8 200093 safezone
Created 8 atoms
  using lattice units in orthogonal box = (0 0 0) to (100 100 100)
  create_atoms CPU = 0.000 seconds
labelmap 		atom 1 C
mass 			* 12.01



#==========Velocity initialization==========
velocity 		all create 0.0000001 1563967 rot yes dist gaussian

#======Pair style for atom interactions=============
pair_style 		airebo 1.5 1 1
pair_coeff 		* * CH.airebo C
Reading airebo potential file CH.airebo with DATE: 2011-10-25

#==============Neighbor selection===================
neighbor 		0.3 bin
neigh_modify 	every 1 delay 0 check yes



#==============Custom Wall force====================
#==========Wall with harmonic potential=============
#variable       k equal 10.0

#fix             xlo_wall all wall/harmonic xlo EDGE v_k 1.0 0.7
#fix             xhi_wall all wall/harmonic xhi EDGE v_k 1.0 0.7
#fix             ylo_wall all wall/harmonic ylo EDGE v_k 1.0 0.7
#fix             yhi_wall all wall/harmonic yhi EDGE v_k 1.0 0.7
#fix             zlo_wall all wall/harmonic zlo EDGE v_k 1.0 0.7
#fix             zhi_wall all wall/harmonic zhi EDGE v_k 1.0 0.7



#=====================Timestep======================
timestep 		${timestep}
timestep 		0.0001

#===============Define dump command=================
dump 			1 all cfg 100000 ./dump/dump.tensile_*.cfg mass type xs ys zs vx vy vz id

#========System temperature printing info===========
thermo_style 	custom step temp etotal epair pe ke
thermo 			${iexport}	# 1'000'000
thermo 			1000000	



#====================CRC Cycle======================

#=============Condensation et chauffe===============

# Minimize during the heating phase
#min_style       sd
#minimize        1.0e-5 1.0e-7 500 1000

fix 			1 all nve
fix 			2 all temp/berendsen 600 ${tempchauf} ${Tdamp}
fix 			2 all temp/berendsen 600 3000 ${Tdamp}
fix 			2 all temp/berendsen 600 3000 0.001
fix             3 all momentum 1 linear 1 1 1 angular rescale

run 			${iter}
run 			1000000000
Neighbor list info ...
  update: every = 1 steps, delay = 0 steps, check = yes
  max neighbors/atom: 2000, page size: 100000
  master list distance cutoff = 8.116371
  ghost atom cutoff = 8.116371
  binsize = 4.0581855, bins = 25 25 25
  1 neighbor lists, perpetual/occasional/extra = 1 0 0
  (1) pair airebo, perpetual
      attributes: full, newton on, ghost
      pair build: full/bin/ghost
      stencil: full/ghost/bin/3d
      bin: standard
Per MPI rank memory allocation (min/avg/max) = 3.978 | 3.978 | 3.978 Mbytes
   Step          Temp          TotEng         E_pair         PotEng         KinEng    
         0   1e-07          9.0482101e-11  0              0              9.0482101e-11
   1000000   602.39998      0.54506416     0              0              0.54506416   
   2000000   604.79998      0.54723573     0              0              0.54723573   
   3000000   607.19998      0.5494073      0              0              0.5494073    
   4000000   609.59998      0.55157887     0              0              0.55157887   
   5000000   611.99998      0.55375044     0              0              0.55375044   
   6000000   614.39998      0.55592201     0              0              0.55592201   
   7000000   616.79475     -5.6516897     -6.2097786     -6.2097786      0.55808885   
   8000000   619.20004     -5.649535      -6.2098002     -6.2098002      0.5602652    
   9000000   621.59994     -5.6473638     -6.2098005     -6.2098005      0.56243668   
  10000000   624.00003     -5.6451951     -6.2098035     -6.2098035      0.56460834   
  11000000   626.39992     -5.6430262     -6.209806      -6.209806       0.56677981   
  12000000   628.79998     -5.6408518     -6.2098032     -6.2098032      0.56895144   
  13000000   631.19996     -5.638682      -6.209805      -6.209805       0.57112298   
  14000000   633.59909     -5.6384698     -6.2117635     -6.2117635      0.57329377   
  15000000   635.90192     -12.263759     -12.839136     -12.839136      0.57537742   
  16000000   638.43636     -12.303086     -12.880757     -12.880757      0.57767064   
  17000000   634.45838     -18.296501     -18.870572     -18.870572      0.57407127   
  18000000   651.37181     -24.593956     -25.183331     -25.183331      0.5893749    
  19000000   645.63826     -24.658564     -25.242751     -25.242751      0.58418707   
  20000000   648.14039     -31.347215     -31.933666     -31.933666      0.58645104   
  21000000   650.38824     -31.346327     -31.934812     -31.934812      0.58848494   
  22000000   652.80732     -37.475516     -38.06619      -38.06619       0.59067378   
  23000000   655.16506     -37.47301      -38.065817     -38.065817      0.59280711   
  24000000   657.59998     -37.471234     -38.066245     -38.066245      0.59501028   
  25000000   660.00433     -37.468962     -38.066148     -38.066148      0.59718579   
  26000000   662.40715     -37.466709     -38.066069     -38.066069      0.59935991   
  27000000   664.79941     -37.464716     -38.06624      -38.06624       0.60152448   
  28000000   667.20004     -37.462549     -38.066246     -38.066246      0.60369662   
  29000000   669.59986     -37.460379     -38.066247     -38.066247      0.60586802   
  30000000   671.99997     -37.458208     -38.066247     -38.066247      0.6080397    
  31000000   674.40003     -37.456035     -38.066247     -38.066247      0.61021132   
  32000000   676.79998     -37.453864     -38.066247     -38.066247      0.61238284   
  33000000   679.20003     -37.451687     -38.066242     -38.066242      0.61455446   
  34000000   681.59986     -37.449519     -38.066245     -38.066245      0.61672587   
  35000000   684.00008     -37.447334     -38.066232     -38.066232      0.61889765   
  36000000   686.4002      -37.44517      -38.06624      -38.06624       0.62106932   
  37000000   688.80024     -37.442942     -38.066182     -38.066182      0.62324093   
  38000000   691.20136     -37.440811     -38.066225     -38.066225      0.62541352   
  39000000   719.11767     -42.529425     -43.180098     -43.180098      0.65067278   
  40000000   650.99943     -42.077117     -42.666155     -42.666155      0.58903796   
  41000000   664.27179     -41.949215     -42.550263     -42.550263      0.60104708   
  42000000   718.14137     -42.517691     -43.167481     -43.167481      0.64978941   
  43000000   673.48888     -42.496629     -43.106015     -43.106015      0.60938689   
  44000000   698.0501      -42.389513     -43.021124     -43.021124      0.6316104    
  45000000   700.75204     -42.493749     -43.127804     -43.127804      0.63405517   
  46000000   669.93873     -41.86013      -42.466305     -42.466305      0.60617464   
  47000000   710.88395     -42.60084      -43.244063     -43.244063      0.64322274   
  48000000   741.02987     -42.374672     -43.045171     -43.045171      0.6704994    
  49000000   664.70857     -42.408391     -43.009833     -43.009833      0.60144229   
  50000000   712.25835     -42.049875     -42.694342     -42.694342      0.64446633   
  51000000   714.96853     -42.347003     -42.993921     -42.993921      0.64691855   
  52000000   708.3257      -42.555849     -43.196757     -43.196757      0.64090798   
  53000000   777.61367     -41.991704     -42.695305     -42.695305      0.70360119   
  54000000   765.692       -42.43541      -43.128224     -43.128224      0.69281421   
  55000000   736.99552     -42.564078     -43.230927     -43.230927      0.66684904   
  56000000   736.51384     -42.45783      -43.124243     -43.124243      0.6664132    
  57000000   668.23149     -42.274467     -42.879097     -42.879097      0.6046299    
  58000000   744.41859     -42.297236     -42.970801     -42.970801      0.67356559   
  59000000   744.8683      -41.802885     -42.476857     -42.476857      0.67397249   
  60000000   771.69194     -41.780306     -42.47855      -42.47855       0.69824308   
  61000000   743.07044     -42.203945     -42.876291     -42.876291      0.67234575   
  62000000   718.86154     -42.308181     -42.958622     -42.958622      0.65044102   
  63000000   755.73115     -42.154682     -42.838483     -42.838483      0.68380143   
  64000000   775.71681     -42.244285     -42.94617      -42.94617       0.70188487   
  65000000   821.58428     -42.166743     -42.910129     -42.910129      0.74338672   
  66000000   800.83417     -41.72256      -42.447172     -42.447172      0.72461159   
  67000000   710.78882     -42.124425     -42.767561     -42.767561      0.64313667   
  68000000   755.34196     -42.290149     -42.973598     -42.973598      0.68344928   
  69000000   739.03748     -42.372663     -43.041359     -43.041359      0.66869664   
  70000000   799.77653     -42.153599     -42.877254     -42.877254      0.72365461   
  71000000   771.008       -41.666712     -42.364337     -42.364337      0.69762424   
  72000000   734.10945     -42.321911     -42.986149     -42.986149      0.66423766   
  73000000   787.46919     -42.20002      -42.912539     -42.912539      0.71251867   
  74000000   778.24572     -42.280104     -42.984277     -42.984277      0.70417309   
  75000000   801.33453     -41.862617     -42.587681     -42.587681      0.72506432   
  76000000   793.50647     -42.069836     -42.787817     -42.787817      0.71798133   
  77000000   767.09616     -42.499507     -43.193591     -43.193591      0.69408473   
  78000000   827.46458     -42.198252     -42.946959     -42.946959      0.74870734   
  79000000   811.01515     -41.761948     -42.495772     -42.495772      0.73382355   
  80000000   808.42472     -42.030975     -42.762454     -42.762454      0.73147967   
  81000000   775.09062     -41.87206      -42.573378     -42.573378      0.70131828   
  82000000   764.92755     -42.355467     -43.04759      -43.04759       0.69212253   
  83000000   781.44736     -42.121971     -42.829041     -42.829041      0.70707      
  84000000   821.87489     -41.072116     -41.815765     -41.815765      0.74364967   
  85000000   800.41455     -41.710539     -42.434771     -42.434771      0.7242319    
  86000000   825.50789     -42.239643     -42.98658      -42.98658       0.74693689   
  87000000   777.27355     -41.812139     -42.515433     -42.515433      0.70329344   
  88000000   764.2147      -41.868028     -42.559505     -42.559505      0.69147752   
  89000000   796.12089     -42.239409     -42.959756     -42.959756      0.72034691   
  90000000   845.55283     -42.145052     -42.910126     -42.910126      0.76507397   
  91000000   845.83374     -42.205244     -42.970572     -42.970572      0.76532815   
  92000000   812.0803      -42.021333     -42.756121     -42.756121      0.73478733   
  93000000   850.79355     -41.71375      -42.483566     -42.483566      0.76981588   
  94000000   851.99149     -42.156397     -42.927297     -42.927297      0.77089981   
  95000000   857.74235     -41.926006     -42.70211      -42.70211       0.77610331   
  96000000   844.58139     -42.291425     -43.05562      -43.05562       0.76419499   
  97000000   835.7876      -42.303303     -43.059541     -43.059541      0.75623819   
  98000000   851.34723     -42.287894     -43.058211     -43.058211      0.77031686   
  99000000   793.22475     -42.106656     -42.824382     -42.824382      0.71772643   
 100000000   897.98192     -42.099558     -42.912071     -42.912071      0.81251291   
 101000000   829.01298     -42.103636     -42.853744     -42.853744      0.75010836   
 102000000   828.10688     -41.641891     -42.391179     -42.391179      0.74928851   
 103000000   848.41187     -41.821033     -42.588694     -42.588694      0.76766089   
 104000000   852.07076     -41.649923     -42.420895     -42.420895      0.77097153   
 105000000   876.43232     -42.011034     -42.804048     -42.804048      0.79301438   
 106000000   857.28802     -42.081487     -42.857179     -42.857179      0.77569222   
 107000000   871.17096     -42.097633     -42.885887     -42.885887      0.78825379   
 108000000   854.67912     -42.063065     -42.836397     -42.836397      0.77333163   
 109000000   853.26451     -42.001185     -42.773237     -42.773237      0.77205166   
 110000000   894.78063     -42.134298     -42.943914     -42.943914      0.80961632   
 111000000   852.42382     -42.020665     -42.791956     -42.791956      0.77129098   
 112000000   848.0342      -42.184482     -42.951801     -42.951801      0.76731917   
 113000000   861.11469     -42.065196     -42.844351     -42.844351      0.77915467   
 114000000   928.63308     -41.973353     -42.8136       -42.8136        0.84024673   
 115000000   836.04936     -42.126978     -42.883453     -42.883453      0.75647503   
 116000000   863.10089     -41.56919      -42.350142     -42.350142      0.78095183   
 117000000   825.50955     -42.022385     -42.769323     -42.769323      0.74693839   
 118000000   896.9272      -41.96362      -42.775179     -42.775179      0.81155858   
 119000000   903.48276     -42.067267     -42.884757     -42.884757      0.81749019   
 120000000   905.53051     -42.020165     -42.839508     -42.839508      0.81934304   
 121000000   871.91975     -42.00435      -42.793281     -42.793281      0.78893132   
 122000000   897.64568     -42.051243     -42.863452     -42.863452      0.81220867   
 123000000   862.71425     -41.587226     -42.367828     -42.367828      0.78060198   
 124000000   940.50474     -42.366296     -43.217284     -43.217284      0.85098846   
 125000000   900.47121     -42.263872     -43.078638     -43.078638      0.81476528   
 126000000   974.62619     -42.205145     -43.087008     -43.087008      0.88186226   
 127000000   954.04446     -41.309909     -42.173148     -42.173148      0.86323948   
 128000000   946.80498     -42.386524     -43.243213     -43.243213      0.85668904   
 129000000   907.7807      -42.046878     -42.868257     -42.868257      0.82137905   
 130000000   886.39048     -41.446392     -42.248417     -42.248417      0.80202473   
 131000000   961.61047     -42.012964     -42.88305      -42.88305       0.87008536   
 132000000   895.31034     -41.84191      -42.652006     -42.652006      0.81009561   
 133000000   961.78895     -41.725015     -42.595262     -42.595262      0.87024686   
 134000000   908.93328     -42.052444     -42.874866     -42.874866      0.82242193   
 135000000   883.21223     -41.548519     -42.347668     -42.347668      0.79914899   
 136000000   972.14679     -41.621929     -42.501548     -42.501548      0.87961885   
 137000000   890.99474     -42.276367     -43.082558     -43.082558      0.80619076   
 138000000   979.64881     -41.487781     -42.374188     -42.374188      0.88640683   
 139000000   956.48243     -42.271746     -43.137191     -43.137191      0.86544541   
 140000000   917.78716     -42.172654     -43.003087     -43.003087      0.83043311   
 141000000   898.76688     -41.58693      -42.400153     -42.400153      0.81322316   
 142000000   945.03248     -41.628158     -42.483244     -42.483244      0.85508525   
 143000000   935.47391     -42.22195      -43.068386     -43.068386      0.84643645   
 144000000   923.79459     -41.890849     -42.726718     -42.726718      0.83586876   
 145000000   953.70633     -41.549685     -42.412618     -42.412618      0.86293353   
 146000000   914.26785     -41.675354     -42.502603     -42.502603      0.82724876   
 147000000   958.04271     -42.045912     -42.912769     -42.912769      0.86685717   
 148000000   924.78302     -42.436905     -43.273668     -43.273668      0.83676311   
 149000000   941.52905     -42.122151     -42.974066     -42.974066      0.85191527   
 150000000   913.40717     -41.259094     -42.085564     -42.085564      0.82647      
 151000000   985.66762     -41.771676     -42.663529     -42.663529      0.89185278   
 152000000   966.51449     -42.170661     -43.045184     -43.045184      0.87452263   
 153000000   945.34814     -41.865934     -42.721305     -42.721305      0.85537086   
 154000000   931.19125     -41.500671     -42.343232     -42.343232      0.84256141   
 155000000   936.87723     -41.958188     -42.805895     -42.805895      0.8477062    
 156000000   935.6515      -41.731412     -42.578009     -42.578009      0.84659714   
 157000000   906.21044     -41.914493     -42.734451     -42.734451      0.81995825   
 158000000   977.47896     -41.866154     -42.750597     -42.750597      0.8844435    
 159000000   1054.3914     -41.935043     -42.889079     -42.889079      0.95403545   
 160000000   1059.3914     -41.018761     -41.97732      -41.97732       0.95855961   
 161000000   1012.231      -42.013308     -42.929196     -42.929196      0.91588788   
 162000000   1073.9463     -41.749959     -42.721689     -42.721689      0.9717292    
 163000000   986.87486     -42.074861     -42.967806     -42.967806      0.89294512   
 164000000   963.0946      -42.002257     -42.873686     -42.873686      0.87142823   
 165000000   978.6717      -41.725124     -42.610646     -42.610646      0.88552272   
 166000000   977.07006     -41.341312     -42.225386     -42.225386      0.88407353   
 167000000   1010.6826     -41.875009     -42.789495     -42.789495      0.91448686   
 168000000   1026.8259     -41.925291     -42.854385     -42.854385      0.9290937    
 169000000   978.54611     -41.519608     -42.405017     -42.405017      0.88540909   
 170000000   997.00368     -41.917078     -42.819188     -42.819188      0.90210988   
 171000000   993.28789     -41.951675     -42.850423     -42.850423      0.89874775   
 172000000   1000.8727     -42.041708     -42.947319     -42.947319      0.90561065   
 173000000   1057.4181     -41.557836     -42.51461      -42.51461       0.95677415   
 174000000   998.24891     -41.3414       -42.244637     -42.244637      0.90323659   
 175000000   1028.0947     -41.890003     -42.820245     -42.820245      0.93024166   
 176000000   1038.4579     -41.335347     -42.274966     -42.274966      0.93961856   
 177000000   1071.1496     -41.907096     -42.876295     -42.876295      0.96919871   
 178000000   1022.588      -42.328056     -43.253315     -43.253315      0.92525914   
 179000000   993.99589     -41.274794     -42.174182     -42.174182      0.89938837   
 180000000   998.00618     -41.165487     -42.068504     -42.068504      0.90301696   
 181000000   1013.3591     -41.448035     -42.364944     -42.364944      0.91690865   
 182000000   1020.577      -41.809975     -42.733414     -42.733414      0.92343952   
 183000000   1029.0031     -42.056753     -42.987817     -42.987817      0.93106363   
 184000000   1068.4759     -41.855537     -42.822316     -42.822316      0.96677948   
 185000000   1061.2921     -41.380595     -42.340874     -42.340874      0.96027943   
 186000000   995.28521     -41.047301     -41.947856     -41.947856      0.90055497   
 187000000   1030.0351     -41.98261      -42.914607     -42.914607      0.93199741   
 188000000   1105.363      -41.700826     -42.700982     -42.700982      1.0001557    
 189000000   1013.4457     -41.476065     -42.393052     -42.393052      0.91698699   
 190000000   1063.9123     -41.740672     -42.703323     -42.703323      0.96265023   
 191000000   1047.1857     -41.732107     -42.679623     -42.679623      0.94751563   
 192000000   1037.8886     -41.77741      -42.716513     -42.716513      0.93910339   
 193000000   1055.799      -41.7856       -42.740909     -42.740909      0.95530912   
 194000000   1072.4502     -41.491518     -42.461894     -42.461894      0.97037552   
 195000000   1084.0916     -41.898242     -42.879151     -42.879151      0.98090883   
 196000000   1062.9054     -41.777541     -42.73928      -42.73928       0.96173915   
 197000000   1050.6773     -41.751169     -42.701844     -42.701844      0.95067486   
 198000000   1095.1817     -40.917079     -41.908023     -41.908023      0.99094344   
 199000000   1083.2512     -41.355323     -42.335472     -42.335472      0.98014841   
 200000000   1103.4116     -41.334205     -42.332595     -42.332595      0.99838997   
 201000000   1123.3256     -41.98928      -43.005688     -43.005688      1.0164086    
 202000000   990.9393      -41.673413     -42.570035     -42.570035      0.89662271   
 203000000   1123.6957     -41.208169     -42.224912     -42.224912      1.0167435    
 204000000   1045.7875     -41.836391     -42.782641     -42.782641      0.94625048   
 205000000   1189.5815     -40.659112     -41.735471     -41.735471      1.0763583    
 206000000   1076.7412     -42.214039     -43.188297     -43.188297      0.97425806   
 207000000   1154.4022     -41.487387     -42.531914     -42.531914      1.0445274    
 208000000   1098.9271     -41.798091     -42.792423     -42.792423      0.99433237   
 209000000   1070.3237     -41.651261     -42.619713     -42.619713      0.9684514    
 210000000   1123.2413     -41.452651     -42.468983     -42.468983      1.0163323    
 211000000   1188.1815     -41.27889      -42.353982     -42.353982      1.0750916    
 212000000   1105.7644     -41.290958     -42.291477     -42.291477      1.0005189    
 213000000   1168.1517     -41.424895     -42.481863     -42.481863      1.0569682    
 214000000   1096.6354     -41.525099     -42.517357     -42.517357      0.99225874   
 215000000   1033.6529     -41.488398     -42.423668     -42.423668      0.93527086   
 216000000   1079.9234     -41.436183     -42.41332      -42.41332       0.97713743   
 217000000   1104.9977     -41.183953     -42.183778     -42.183778      0.9998251    
 218000000   1095.7954     -41.980284     -42.971783     -42.971783      0.99149874   
 219000000   1123.4853     -41.554958     -42.571511     -42.571511      1.0165531    
 220000000   1142.2547     -41.83628      -42.869816     -42.869816      1.033536     
 221000000   1090.9033     -42.097037     -43.084109     -43.084109      0.9870722    
 222000000   1148.2263     -41.966689     -43.005628     -43.005628      1.0389393    
 223000000   1190.487      -41.672961     -42.750138     -42.750138      1.0771777    
 224000000   1133.1705     -41.290264     -42.31558      -42.31558       1.0253165    
 225000000   1179.682      -40.676441     -41.743842     -41.743842      1.067401     
 226000000   1130.1951     -41.312713     -42.335337     -42.335337      1.0226243    
 227000000   1102.2913     -41.07164      -42.069017     -42.069017      0.99737638   
 228000000   1137.2301     -41.718568     -42.747558     -42.747558      1.0289897    
 229000000   1128.4733     -41.431593     -42.452659     -42.452659      1.0210663    
 230000000   1146.6926     -41.29468      -42.332232     -42.332232      1.0375515    
 231000000   1167.0155     -42.094235     -43.150175     -43.150175      1.0559401    
 232000000   1123.5121     -41.620674     -42.637252     -42.637252      1.0165774    
 233000000   1156.2322     -42.002537     -43.04872      -43.04872       1.0461832    
 234000000   1124.2451     -41.405351     -42.422591     -42.422591      1.0172406    
 235000000   1157.7754     -41.529621     -42.577201     -42.577201      1.0475795    
 236000000   1151.0782     -41.276219     -42.317739     -42.317739      1.0415197    
 237000000   1180.3274     -41.33635      -42.404335     -42.404335      1.067985     
 238000000   1158.162      -41.710709     -42.758638     -42.758638      1.0479293    
 239000000   1173.382      -41.599484     -42.661185     -42.661185      1.0617007    
 240000000   1146.6596     -41.615926     -42.653448     -42.653448      1.0375217    
 241000000   1126.0049     -41.803046     -42.821878     -42.821878      1.0188329    
 242000000   1190.3116     -41.403526     -42.480545     -42.480545      1.077019     
 243000000   1248.0679     -40.916967     -42.046245     -42.046245      1.1292781    
 244000000   1124.5291     -40.845279     -41.862776     -41.862776      1.0174975    
 245000000   1150.8193     -40.823212     -41.864497     -41.864497      1.0412855    
 246000000   1243.0908     -41.573377     -42.698152     -42.698152      1.1247747    
 247000000   1216.1859     -42.104648     -43.205079     -43.205079      1.1004306    
 248000000   1203.5837     -41.473822     -42.56285      -42.56285       1.0890278    
 249000000   1165.2945     -41.631702     -42.686085     -42.686085      1.054383     
 250000000   1257.4825     -41.444792     -42.582589     -42.582589      1.1377966    
 251000000   1340.8905     -40.700512     -41.913778     -41.913778      1.2132659    
 252000000   1199.8985     -41.423104     -42.508797     -42.508797      1.0856934    
 253000000   1151.7988     -41.44309      -42.485262     -42.485262      1.0421718    
 254000000   1280.158      -40.814771     -41.973085     -41.973085      1.1583139    
 255000000   1233.8416     -41.576794     -42.6932       -42.6932        1.1164058    
 256000000   1197.5973     -41.212961     -42.296572     -42.296572      1.0836112    
 257000000   1252.5243     -41.943312     -43.076623     -43.076623      1.1333103    
 258000000   1211.68       -41.483758     -42.580112     -42.580112      1.0963536    
 259000000   1161.7286     -41.317387     -42.368543     -42.368543      1.0511564    
 260000000   1200.4808     -41.303041     -42.389261     -42.389261      1.0862202    
 261000000   1230.3612     -40.996754     -42.110011     -42.110011      1.1132567    
 262000000   1257.6924     -41.049748     -42.187734     -42.187734      1.1379865    
 263000000   1209.6273     -41.361141     -42.455637     -42.455637      1.0944962    
 264000000   1203.0837     -40.967907     -42.056482     -42.056482      1.0885754    
 265000000   1277.2957     -41.239583     -42.395307     -42.395307      1.155724     
 266000000   1235.9223     -41.501311     -42.619599     -42.619599      1.1182885    
 267000000   1259.033      -41.169551     -42.308751     -42.308751      1.1391995    
 268000000   1263.1927     -41.203478     -42.346441     -42.346441      1.1429633    
 269000000   1245.7432     -41.348039     -42.475214     -42.475214      1.1271746    
 270000000   1241.9292     -41.22345      -42.347173     -42.347173      1.1237236    
 271000000   1270.863      -41.219516     -42.369419     -42.369419      1.1499035    
 272000000   1268.6285     -41.598847     -42.746729     -42.746729      1.1478818    
 273000000   1252.7777     -41.358523     -42.492062     -42.492062      1.1335396    
 274000000   1220.1649     -41.562868     -42.666899     -42.666899      1.1040309    
 275000000   1214.9432     -41.370959     -42.470266     -42.470266      1.0993062    
 276000000   1238.5002     -41.640665     -42.761286     -42.761286      1.120621     
 277000000   1335.6914     -41.308301     -42.516863     -42.516863      1.2085617    
 278000000   1226.5387     -41.471689     -42.581487     -42.581487      1.109798     
 279000000   1257.375      -41.496418     -42.634117     -42.634117      1.1376994    
 280000000   1249.8121     -41.792882     -42.923738     -42.923738      1.1308563    
 281000000   1306.2659     -41.134371     -42.316308     -42.316308      1.1819368    
 282000000   1378.0371     -40.832176     -42.079053     -42.079053      1.2468769    
 283000000   1277.5393     -41.536122     -42.692066     -42.692066      1.1559444    
 284000000   1205.21       -41.153521     -42.244021     -42.244021      1.0904993    
 285000000   1271.0553     -40.870512     -42.02059      -42.02059       1.1500775    
 286000000   1299.5199     -41.017816     -42.193649     -42.193649      1.1758329    
 287000000   1230.627      -41.031563     -42.14506      -42.14506       1.1134971    
 288000000   1250.2207     -41.397152     -42.528378     -42.528378      1.1312259    
 289000000   1358.6426     -40.937209     -42.166537     -42.166537      1.2293283    
 290000000   1279.4679     -40.784244     -41.941933     -41.941933      1.1576895    
 291000000   1296.974      -41.102071     -42.2756       -42.2756        1.1735293    
 292000000   1319.0051     -41.290667     -42.48413      -42.48413       1.1934635    
 293000000   1316.0555     -41.523231     -42.714025     -42.714025      1.1907947    
 294000000   1370.0329     -41.276962     -42.516596     -42.516596      1.2396346    
 295000000   1303.6146     -41.490033     -42.669571     -42.669571      1.1795379    
 296000000   1238.218      -40.923387     -42.043752     -42.043752      1.1203657    
 297000000   1311.8417     -41.303833     -42.490815     -42.490815      1.1869819    
 298000000   1298.8083     -41.246642     -42.421831     -42.421831      1.1751891    
 299000000   1320.2012     -40.814742     -42.009288     -42.009288      1.1945458    
 300000000   1322.8271     -41.270657     -42.467579     -42.467579      1.1969217    
 301000000   1264.5008     -41.366936     -42.511083     -42.511083      1.1441469    
 302000000   1347.9788     -41.53836      -42.75804      -42.75804       1.2196796    
 303000000   1334.9422     -41.798649     -43.006532     -43.006532      1.2078837    
 304000000   1323.4517     -41.27835      -42.475837     -42.475837      1.1974869    
 305000000   1348.2833     -41.380223     -42.600178     -42.600178      1.2199551    
 306000000   1389.1885     -41.40318      -42.660147     -42.660147      1.2569669    
 307000000   1376.3305     -41.32936      -42.574693     -42.574693      1.2453327    
 308000000   1310.9954     -41.102917     -42.289133     -42.289133      1.1862162    
 309000000   1353.0467     -41.155907     -42.380172     -42.380172      1.2242651    
 310000000   1308.6534     -40.599174     -41.783271     -41.783271      1.1840971    
 311000000   1314.1871     -41.374427     -42.563532     -42.563532      1.1891041    
 312000000   1408.2109     -41.3823       -42.656479     -42.656479      1.2741788    
 313000000   1321.323      -41.030323     -42.225884     -42.225884      1.1955608    
 314000000   1249.62       -40.927171     -42.057854     -42.057854      1.1306824    
 315000000   1347.1168     -41.346451     -42.565351     -42.565351      1.2188996    
 316000000   1379.6004     -40.001268     -41.249559     -41.249559      1.2482915    
 317000000   1398.9717     -41.146808     -42.412627     -42.412627      1.265819     
 318000000   1390.3636     -41.101885     -42.359915     -42.359915      1.2580302    
 319000000   1297.0307     -41.174588     -42.348169     -42.348169      1.1735806    
 320000000   1343.4672     -41.259489     -42.475086     -42.475086      1.2155973    
 321000000   1378.4015     -41.066801     -42.314007     -42.314007      1.2472066    
 322000000   1360.6091     -41.226326     -42.457434     -42.457434      1.2311077    
 323000000   1392.8551     -41.074261     -42.334546     -42.334546      1.2602845    
 324000000   1366.7179     -41.384364     -42.620999     -42.620999      1.2366351    
 325000000   1326.5205     -40.554202     -41.754466     -41.754466      1.2002637    
 326000000   1367.076      -41.019349     -42.256308     -42.256308      1.2369591    
 327000000   1389.9417     -41.537346     -42.794994     -42.794994      1.2576485    
 328000000   1451.5817     -40.826599     -42.14002      -42.14002       1.3134216    
 329000000   1398.6352     -40.910774     -42.176289     -42.176289      1.2655145    
 330000000   1397.7936     -41.193615     -42.458368     -42.458368      1.264753     
 331000000   1329.8587     -40.42669      -41.629974     -41.629974      1.2032841    
 332000000   1377.1469     -40.868072     -42.114144     -42.114144      1.2460715    
 333000000   1409.7343     -41.690498     -42.966056     -42.966056      1.2755572    
 334000000   1361.3199     -41.366985     -42.598736     -42.598736      1.2317508    
 335000000   1396.6787     -40.909412     -42.173156     -42.173156      1.2637442    
 336000000   1351.6503     -40.399104     -41.622105     -41.622105      1.2230016    
 337000000   1400.7768     -41.133769     -42.401221     -42.401221      1.2674523    
 338000000   1400.0612     -39.652439     -40.919244     -40.919244      1.2668048    
 339000000   1371.7878     -41.693231     -42.934453     -42.934453      1.2412225    
 340000000   1421.3125     -41.112996     -42.39903      -42.39903       1.2860334    
 341000000   1404.7197     -41.288644     -42.559664     -42.559664      1.2710199    
 342000000   1479.5289     -40.667918     -42.006627     -42.006627      1.3387089    
 343000000   1448.1225     -41.190892     -42.501183     -42.501183      1.3102916    
 344000000   1455.628      -41.002945     -42.320028     -42.320028      1.3170828    
 345000000   1498.8941     -40.524841     -41.881072     -41.881072      1.3562309    
 346000000   1359.8099     -40.82315      -42.053534     -42.053534      1.2303845    
 347000000   1449.6661     -41.311917     -42.623605     -42.623605      1.3116884    
 348000000   1437.0529     -41.111002     -42.411277     -42.411277      1.3002757    
 349000000   1382.5066     -39.888881     -41.139802     -41.139802      1.2509211    
 350000000   1416.2737     -40.874196     -42.15567      -42.15567       1.2814742    
 351000000   1453.7853     -40.659244     -41.97466      -41.97466       1.3154155    
 352000000   1448.0544     -40.800644     -42.110874     -42.110874      1.3102301    
 353000000   1331.3168     -40.324062     -41.528665     -41.528665      1.2046034    
 354000000   1516.2208     -40.985637     -42.357545     -42.357545      1.3719084    
 355000000   1464.2286     -41.353575     -42.67844      -42.67844       1.3248648    
 356000000   1459.016      -40.14225      -41.462398     -41.462398      1.3201483    
 357000000   1418.4059     -41.470465     -42.753869     -42.753869      1.2834035    
 358000000   1515.5426     -40.927444     -42.298739     -42.298739      1.3712948    
 359000000   1452.8835     -41.194894     -42.509493     -42.509493      1.3145995    
 360000000   1468.8814     -40.869434     -42.198509     -42.198509      1.3290748    
 361000000   1481.7685     -41.067798     -42.408533     -42.408533      1.3407353    
 362000000   1513.3381     -41.337139     -42.706439     -42.706439      1.3693001    
 363000000   1462.5673     -40.878084     -42.201446     -42.201446      1.3233616    
 364000000   1487.5609     -41.272453     -42.618429     -42.618429      1.3459763    
 365000000   1457.833      -41.280562     -42.59964      -42.59964       1.3190779    
 366000000   1427.0102     -41.403597     -42.694785     -42.694785      1.2911888    
 367000000   1478.8139     -41.031479     -42.369541     -42.369541      1.3380619    
 368000000   1484.0133     -40.800712     -42.143478     -42.143478      1.3427665    
 369000000   1472.2915     -40.847364     -42.179524     -42.179524      1.3321603    
 370000000   1473.635      -41.183388     -42.516764     -42.516764      1.3333759    
 371000000   1500.0503     -40.742379     -42.099657     -42.099657      1.3572771    
 372000000   1573.0975     -40.233016     -41.656388     -41.656388      1.4233716    
 373000000   1506.5387     -41.121034     -42.484181     -42.484181      1.3631479    
 374000000   1448.1617     -41.002523     -42.31285      -42.31285       1.3103271    
 375000000   1491.5496     -40.500965     -41.850551     -41.850551      1.3495854    
 376000000   1527.4813     -40.987071     -42.369168     -42.369168      1.3820972    
 377000000   1496.665      -40.940953     -42.295166     -42.295166      1.3542139    
 378000000   1413.2767     -40.902163     -42.180925     -42.180925      1.2787625    
 379000000   1523.4955     -40.19895      -41.577441     -41.577441      1.3784907    
 380000000   1457.869      -40.687321     -42.006432     -42.006432      1.3191105    
 381000000   1426.5566     -41.422138     -42.712916     -42.712916      1.2907784    
 382000000   1524.4734     -40.983749     -42.363125     -42.363125      1.3793756    
 383000000   1506.2957     -40.927837     -42.290765     -42.290765      1.362928     
 384000000   1523.8383     -41.012164     -42.390965     -42.390965      1.3788009    
 385000000   1529.4807     -41.165509     -42.549415     -42.549415      1.3839063    
 386000000   1507.9453     -40.92889      -42.293311     -42.293311      1.3644206    
 387000000   1402.0277     -40.492166     -41.760751     -41.760751      1.2685842    
 388000000   1494.8308     -40.612156     -41.96471      -41.96471       1.3525543    
 389000000   1592.2246     -40.714101     -42.154779     -42.154779      1.4406783    
 390000000   1560.8056     -40.479187     -41.891437     -41.891437      1.4122497    
 391000000   1527.9886     -41.422592     -42.805148     -42.805148      1.3825562    
 392000000   1493.6312     -41.5309       -42.882369     -42.882369      1.3514689    
 393000000   1543.8595     -41.111453     -42.508369     -42.508369      1.3969165    
 394000000   1493.6343     -40.470805     -41.822276     -41.822276      1.3514717    
 395000000   1556.1752     -40.943176     -42.351236     -42.351236      1.4080601    
 396000000   1539.5903     -40.798791     -42.191845     -42.191845      1.3930536    
 397000000   1518.0164     -41.311137     -42.68467      -42.68467       1.3735332    
 398000000   1559.3269     -40.841459     -42.252371     -42.252371      1.4109118    
 399000000   1562.5172     -40.345098     -41.758896     -41.758896      1.4137984    
 400000000   1582.5338     -40.687444     -42.119354     -42.119354      1.4319099    
 401000000   1554.8565     -40.875448     -42.282315     -42.282315      1.4068668    
 402000000   1522.2092     -41.301017     -42.678344     -42.678344      1.3773269    
 403000000   1466.0143     -40.637329     -41.96381      -41.96381       1.3264805    
 404000000   1603.0471     -40.518279     -41.96875      -41.96875       1.4504707    
 405000000   1591.66       -40.485133     -41.925301     -41.925301      1.4401674    
 406000000   1620.0504     -41.371911     -42.837767     -42.837767      1.4658557    
 407000000   1663.4145     -40.461277     -41.966369     -41.966369      1.5050924    
 408000000   1551.0465     -40.590177     -41.993597     -41.993597      1.4034195    
 409000000   1549.3395     -41.126267     -42.528142     -42.528142      1.4018749    
 410000000   1568.5027     -40.59396      -42.013174     -42.013174      1.4192142    
 411000000   1651.8245     -40.579406     -42.074011     -42.074011      1.4946055    
 412000000   1529.4154     -40.345455     -41.729302     -41.729302      1.3838472    
 413000000   1578.3955     -41.271285     -42.699451     -42.699451      1.4281654    
 414000000   1594.9018     -41.322498     -42.765598     -42.765598      1.4431007    
 415000000   1566.5142     -40.979672     -42.397087     -42.397087      1.417415     
 416000000   1556.381      -40.278882     -41.687128     -41.687128      1.4082462    
 417000000   1510.1326     -39.983186     -41.349586     -41.349586      1.3663997    
 418000000   1596.0491     -40.512791     -41.95693      -41.95693       1.4441388    
 419000000   1606.4093     -40.262748     -41.716261     -41.716261      1.4535129    
 420000000   1715.7965     -39.496081     -41.04857      -41.04857       1.5524887    
 421000000   1656.6619     -41.261547     -42.76053      -42.76053       1.4989825    
 422000000   1669.141      -40.54513      -42.055404     -42.055404      1.5102739    
 423000000   1551.9361     -40.761472     -42.165696     -42.165696      1.4042244    
 424000000   1688.3964     -40.834533     -42.36223      -42.36223       1.5276965    
 425000000   1689.8444     -40.875324     -42.404331     -42.404331      1.5290067    
 426000000   1656.8155     -40.258331     -41.757453     -41.757453      1.4991215    
 427000000   1622.459      -40.728894     -42.196929     -42.196929      1.468035     
 428000000   1639.2857     -40.404051     -41.887312     -41.887312      1.4832601    
 429000000   1522.0436     -40.75837      -42.135547     -42.135547      1.377177     
 430000000   1682.8533     -40.191425     -41.714106     -41.714106      1.522681     
 431000000   1621.8972     -41.178534     -42.646061     -42.646061      1.4675266    
 432000000   1558.6832     -40.779234     -42.189563     -42.189563      1.4103294    
 433000000   1592.1909     -40.512383     -41.95303      -41.95303       1.4406478    
 434000000   1631.556      -40.675537     -42.151803     -42.151803      1.4762662    
 435000000   1670.8759     -41.045557     -42.557401     -42.557401      1.5118436    
 436000000   1698.226      -40.666253     -42.202844     -42.202844      1.5365906    
 437000000   1629.4525     -41.069975     -42.544338     -42.544338      1.4743629    
 438000000   1767.8378     -40.476115     -42.075692     -42.075692      1.5995768    
 439000000   1653.7853     -40.498516     -41.994896     -41.994896      1.4963797    
 440000000   1621.3652     -41.035228     -42.502273     -42.502273      1.4670453    
 441000000   1635.2053     -40.492405     -41.971973     -41.971973      1.4795681    
 442000000   1636.6546     -39.945495     -41.426374     -41.426374      1.4808795    
 443000000   1683.4739     -41.06051      -42.583752     -42.583752      1.5232425    
 444000000   1643.5345     -41.194107     -42.681211     -42.681211      1.4871046    
 445000000   1635.2565     -40.336445     -41.816059     -41.816059      1.4796144    
 446000000   1627.4241     -40.59578      -42.068308     -42.068308      1.4725275    
 447000000   1658.4983     -40.330734     -41.831379     -41.831379      1.5006441    
 448000000   1824.5882     -40.159801     -41.810726     -41.810726      1.6509257    
 449000000   1746.4696     -40.754455     -42.334697     -42.334697      1.5802424    
 450000000   1586.7526     -40.572405     -42.008132     -42.008132      1.4357271    
 451000000   1601.2952     -40.835321     -42.284207     -42.284207      1.4488855    
 452000000   1708.0394     -40.147034     -41.692504     -41.692504      1.54547      
 453000000   1748.5634     -40.350552     -41.932689     -41.932689      1.5821369    
 454000000   1693.088      -39.944195     -41.476136     -41.476136      1.5319416    
 455000000   1627.3016     -41.190171     -42.662587     -42.662587      1.4724167    
 456000000   1668.6439     -40.761481     -42.271305     -42.271305      1.5098241    
 457000000   1696.1529     -40.596813     -42.131527     -42.131527      1.5347148    
 458000000   1692.441      -40.321876     -41.853233     -41.853233      1.5313561    
 459000000   1658.011      -41.159141     -42.659344     -42.659344      1.5002032    
 460000000   1702.3875     -40.483814     -42.02417      -42.02417       1.540356     
 461000000   1700.1469     -40.718162     -42.256491     -42.256491      1.5383287    
 462000000   1696.2692     -40.56183      -42.09665      -42.09665       1.53482      
 463000000   1706.1901     -40.83369      -42.377486     -42.377486      1.5437967    
 464000000   1792.7916     -40.23027      -41.852426     -41.852426      1.6221555    
 465000000   1729.5688     -40.397334     -41.962284     -41.962284      1.5649502    
 466000000   1709.2602     -39.992251     -41.538825     -41.538825      1.5465746    
 467000000   1742.0456     -40.783475     -42.359714     -42.359714      1.5762395    
 468000000   1737.0877     -40.606645     -42.178399     -42.178399      1.5717534    
 469000000   1718.5819     -40.485013     -42.040022     -42.040022      1.555009     
 470000000   1665.4747     -40.210994     -41.717951     -41.717951      1.5069566    
 471000000   1705.8479     -40.917038     -42.460525     -42.460525      1.543487     
 472000000   1731.8492     -41.210927     -42.777941     -42.777941      1.5670135    
 473000000   1715.3381     -41.049643     -42.601717     -42.601717      1.552074     
 474000000   1711.6498     -40.547001     -42.095737     -42.095737      1.5487367    
 475000000   1712.762      -40.227999     -41.777742     -41.777742      1.549743     
 476000000   1770.2092     -39.682941     -41.284663     -41.284663      1.6017225    
 477000000   1711.7472     -40.386234     -41.935059     -41.935059      1.5488249    
 478000000   1762.0705     -40.484355     -42.078713     -42.078713      1.5943584    
 479000000   1733.1489     -40.69776      -42.26595      -42.26595       1.5681895    
 480000000   1815.0651     -40.436927     -42.079236     -42.079236      1.642309     
 481000000   1631.426      -40.449394     -41.925543     -41.925543      1.4761485    
 482000000   1764.3313     -39.876207     -41.472611     -41.472611      1.596404     
 483000000   1780.0273     -40.612766     -42.223372     -42.223372      1.6106061    
 484000000   1713.7061     -40.552072     -42.102669     -42.102669      1.5505973    
 485000000   1723.7097     -40.371627     -41.931275     -41.931275      1.5596488    
 486000000   1683.8442     -40.33007      -41.853648     -41.853648      1.5235776    
 487000000   1800.839      -40.154005     -41.783442     -41.783442      1.6294369    
 488000000   1782.0575     -39.826968     -41.439411     -41.439411      1.6124431    
 489000000   1872.1887     -39.190746     -40.884742     -40.884742      1.6939956    
 490000000   1705.4083     -40.294614     -41.837703     -41.837703      1.5430892    
 491000000   1726.7082     -40.163743     -41.726105     -41.726105      1.5623619    
 492000000   1739.5693     -40.376452     -41.950451     -41.950451      1.5739989    
 493000000   1779.7372     -40.236707     -41.847051     -41.847051      1.6103436    
 494000000   1797.5757     -40.298052     -41.924536     -41.924536      1.6264842    
 495000000   1759.6718     -40.548667     -42.140855     -42.140855      1.592188     
 496000000   1774.8775     -40.2145       -41.820446     -41.820446      1.6059465    
 497000000   1836.2131     -40.619496     -42.28094      -42.28094       1.6614442    
 498000000   1753.6692     -40.733915     -42.320671     -42.320671      1.5867567    
 499000000   1748.7315     -40.591782     -42.174071     -42.174071      1.582289     
 500000000   1829.1167     -40.152645     -41.807668     -41.807668      1.6550232    
 501000000   1725.5364     -40.156095     -41.717397     -41.717397      1.5613016    
 502000000   1807.2495     -39.141311     -40.776549     -40.776549      1.6352374    
 503000000   1767.3003     -40.498415     -42.097505     -42.097505      1.5990904    
 504000000   1770.1159     -40.451136     -42.052774     -42.052774      1.601638     
 505000000   1809.298      -39.971583     -41.608673     -41.608673      1.6370908    
 506000000   1856.2565     -40.804612     -42.484192     -42.484192      1.6795799    
 507000000   1781.548      -40.021564     -41.633546     -41.633546      1.6119821    
 508000000   1809.3781     -40.77487      -42.412033     -42.412033      1.6371634    
 509000000   1916.8152     -40.132218     -41.866593     -41.866593      1.7343747    
 510000000   1797.9027     -40.887275     -42.514055     -42.514055      1.6267801    
 511000000   1800.3348     -40.127571     -41.756552     -41.756552      1.6289808    
 512000000   1840.1826     -40.155036     -41.820072     -41.820072      1.6650359    
 513000000   1797.5134     -39.44435      -41.070778     -41.070778      1.6264279    
 514000000   1819.7156     -40.95799      -42.604507     -42.604507      1.6465169    
 515000000   1837.132      -40.608805     -42.271081     -42.271081      1.6622756    
 516000000   1860.6465     -40.474741     -42.158293     -42.158293      1.6835521    
 517000000   1810.4479     -40.606331     -42.244462     -42.244462      1.6381313    
 518000000   1864.3971     -40.613743     -42.300689     -42.300689      1.6869457    
 519000000   1803.6237     -40.55431      -42.186266     -42.186266      1.6319566    
 520000000   1932.6944     -40.155128     -41.90387      -41.90387       1.7487425    
 521000000   1911.399      -39.880575     -41.610049     -41.610049      1.729474     
 522000000   1890.1162     -40.050434     -41.760651     -41.760651      1.7102169    
 523000000   1835.8201     -40.202034     -41.863123     -41.863123      1.6610886    
 524000000   1922.7301     -40.877823     -42.61755      -42.61755       1.7397266    
 525000000   1888.5516     -40.218599     -41.9274       -41.9274        1.7088011    
 526000000   1875.4693     -40.393819     -42.090783     -42.090783      1.696964     
 527000000   1882.629      -40.388461     -42.091903     -42.091903      1.7034423    
 528000000   1721.0794     -40.072473     -41.629742     -41.629742      1.5572688    
 529000000   1889.5016     -40.377551     -42.087212     -42.087212      1.7096608    
 530000000   1846.3992     -39.644062     -41.314723     -41.314723      1.6706608    
 531000000   1830.5162     -39.160831     -40.81712      -40.81712       1.6562895    
 532000000   1867.9815     -40.607482     -42.297671     -42.297671      1.6901889    
 533000000   1839.8043     -40.928135     -42.592829     -42.592829      1.6646936    
 534000000   1919.3076     -39.804231     -41.540861     -41.540861      1.7366298    
 535000000   1881.8543     -40.473584     -42.176326     -42.176326      1.7027413    
 536000000   1912.5795     -39.587945     -41.318487     -41.318487      1.7305421    
 537000000   1834.9507     -40.589984     -42.250286     -42.250286      1.660302     
 538000000   1882.9621     -41.287384     -42.991128     -42.991128      1.7037437    
 539000000   1901.0646     -40.326953     -42.047076     -42.047076      1.7201232    
 540000000   1934.3884     -39.513596     -41.263872     -41.263872      1.7502752    
 541000000   1980.0369     -40.520917     -42.312496     -42.312496      1.791579     
 542000000   1938.1365     -39.587163     -41.34083      -41.34083       1.7536666    
 543000000   1896.2939     -40.307206     -42.023013     -42.023013      1.7158066    
 544000000   1913.1661     -39.794153     -41.525226     -41.525226      1.7310729    
 545000000   1858.687      -39.926436     -41.608215     -41.608215      1.6817791    
 546000000   1944.4047     -40.18255      -41.941889     -41.941889      1.7593382    
 547000000   1872.9389     -40.063761     -41.758435     -41.758435      1.6946745    
 548000000   1884.087      -40.130629     -41.835391     -41.835391      1.7047615    
 549000000   2009.9317     -39.990466     -41.809095     -41.809095      1.8186285    
 550000000   1921.8828     -40.656477     -42.395437     -42.395437      1.73896      
 551000000   1871.5336     -40.447834     -42.141237     -42.141237      1.693403     
 552000000   1867.5965     -40.22859      -41.918431     -41.918431      1.6898406    
 553000000   1953.8702     -40.215866     -41.983769     -41.983769      1.7679028    
 554000000   1897.499      -40.342421     -42.059318     -42.059318      1.7168969    
 555000000   1865.8268     -40.080107     -41.768347     -41.768347      1.6882393    
 556000000   1996.9798     -40.687848     -42.494757     -42.494757      1.8069093    
 557000000   1838.4143     -40.680434     -42.34387      -42.34387       1.6634359    
 558000000   1921.9572     -39.976755     -41.715782     -41.715782      1.7390273    
 559000000   1994.7842     -40.09144      -41.896363     -41.896363      1.8049227    
 560000000   1977.3675     -40.04694      -41.836104     -41.836104      1.7891637    
 561000000   1971.4815     -40.535179     -42.319017     -42.319017      1.7838379    
 562000000   1913.3853     -38.926785     -40.658056     -40.658056      1.7312712    
 563000000   1959.1562     -39.913605     -41.686291     -41.686291      1.7726857    
 564000000   1912.499      -40.194407     -41.924876     -41.924876      1.7304693    
 565000000   1947.6765     -40.178834     -41.941133     -41.941133      1.7622987    
 566000000   2046.9177     -40.223692     -42.075786     -42.075786      1.8520941    
 567000000   2028.0084     -39.844303     -41.679288     -41.679288      1.8349847    
 568000000   2012.3629     -39.254642     -41.07547      -41.07547       1.8208282    
 569000000   1961.2909     -39.809324     -41.583941     -41.583941      1.7746173    
 570000000   2036.9635     -40.330071     -42.173158     -42.173158      1.8430873    
 571000000   1935.6361     -39.17969      -40.931094     -40.931094      1.7514043    
 572000000   1897.8317     -39.969694     -41.686892     -41.686892      1.717198     
 573000000   2026.3367     -39.710297     -41.54377      -41.54377       1.8334721    
 574000000   1996.7833     -39.453644     -41.260376     -41.260376      1.8067315    
 575000000   2007.9855     -39.780789     -41.597656     -41.597656      1.8168675    
 576000000   1897.0975     -39.240982     -40.957516     -40.957516      1.7165337    
 577000000   1986.0368     -39.48428      -41.281288     -41.281288      1.7970078    
 578000000   1879.2322     -39.929079     -41.629448     -41.629448      1.7003688    
 579000000   2012.7454     -40.397615     -42.218789     -42.218789      1.8211744    
 580000000   1979.2233     -39.565541     -41.356383     -41.356383      1.7908428    
 581000000   1979.7622     -38.455968     -40.247298     -40.247298      1.7913305    
 582000000   1899.665      -39.741127     -41.459984     -41.459984      1.7188568    
 583000000   2089.9108     -40.025144     -41.916139     -41.916139      1.8909952    
 584000000   2026.4446     -39.965077     -41.798646     -41.798646      1.8335697    
 585000000   1938.3573     -40.464732     -42.218598     -42.218598      1.7538664    
 586000000   2043.0056     -38.962206     -40.81076      -40.81076       1.8485544    
 587000000   1896.9089     -40.295295     -42.011658     -42.011658      1.7163631    
 588000000   2056.2371     -40.523211     -42.383737     -42.383737      1.8605265    
 589000000   2103.4652     -39.030198     -40.933457     -40.933457      1.9032595    
 590000000   2041.0448     -39.036035     -40.882816     -40.882816      1.8467803    
 591000000   1957.6236     -40.285698     -42.056997     -42.056997      1.771299     
 592000000   2005.1605     -39.759652     -41.573963     -41.573963      1.8143114    
 593000000   2010.9021     -39.671794     -41.491301     -41.491301      1.8195065    
 594000000   2076.8218     -40.454981     -42.334133     -42.334133      1.8791521    
 595000000   2083.9462     -39.484089     -41.369687     -41.369687      1.8855983    
 596000000   2022.6122     -40.384608     -42.21471      -42.21471       1.830102     
 597000000   2066.8516     -39.678475     -41.548606     -41.548606      1.8701307    
 598000000   2046.3339     -40.489741     -42.341307     -42.341307      1.8515659    
 599000000   2051.7281     -38.995144     -40.851591     -40.851591      1.8564467    
 600000000   2010.4167     -41.162152     -42.981219     -42.981219      1.8190673    
 601000000   2095.826      -40.046488     -41.942836     -41.942836      1.8963474    
 602000000   2076.6219     -40.720804     -42.599775     -42.599775      1.8789711    
 603000000   1756.8525     -38.61015      -40.199787     -40.199787      1.589637     
 604000000   2102.9806     -40.540436     -42.443257     -42.443257      1.9028211    
 605000000   2074.8052     -40.366279     -42.243607     -42.243607      1.8773273    
 606000000   2114.4976     -39.322169     -41.235411     -41.235411      1.9132419    
 607000000   2062.6173     -40.178171     -42.04447      -42.04447       1.8662994    
 608000000   1951.2301     -40.274884     -42.040398     -42.040398      1.765514     
 609000000   1972.6335     -39.830967     -41.615848     -41.615848      1.7848803    
 610000000   2107.1165     -38.922434     -40.828997     -40.828997      1.9065633    
 611000000   2088.1504     -39.990132     -41.879534     -41.879534      1.8894023    
 612000000   2041.4311     -39.959343     -41.806473     -41.806473      1.8471298    
 613000000   2025.4789     -39.828205     -41.660901     -41.660901      1.8326959    
 614000000   2020.3981     -40.583826     -42.411924     -42.411924      1.8280987    
 615000000   2188.9436     -39.925238     -41.90584      -41.90584       1.9806022    
 616000000   2023.6549     -40.149702     -41.980748     -41.980748      1.8310455    
 617000000   2042.7686     -40.663287     -42.511627     -42.511627      1.8483399    
 618000000   2170.3057     -39.288509     -41.252247     -41.252247      1.9637382    
 619000000   2120.3555     -39.684702     -41.603245     -41.603245      1.9185422    
 620000000   2093.149      -39.804694     -41.698619     -41.698619      1.8939252    
 621000000   2100.5772     -39.695399     -41.596046     -41.596046      1.9006464    
 622000000   2164.7082     -39.738682     -41.697355     -41.697355      1.9586735    
 623000000   2107.7467     -40.078473     -41.985607     -41.985607      1.9071335    
 624000000   2156.9221     -39.984469     -41.936097     -41.936097      1.9516284    
 625000000   2156.6865     -39.988265     -41.93968      -41.93968       1.9514152    
 626000000   2114.8695     -39.73592      -41.649499     -41.649499      1.9135784    
 627000000   2027.0753     -40.399677     -42.233818     -42.233818      1.8341403    
 628000000   2042.9114     -40.001715     -41.850184     -41.850184      1.8484691    
 629000000   2059.8839     -39.329905     -41.193731     -41.193731      1.8638263    
 630000000   2088.7908     -40.473842     -42.363824     -42.363824      1.8899818    
 631000000   1992.595      -39.66658      -41.469522     -41.469522      1.8029419    
 632000000   2088.8188     -39.605754     -41.495761     -41.495761      1.8900071    
 633000000   2031.6609     -39.717725     -41.556014     -41.556014      1.8382895    
 634000000   2146.9516     -39.546038     -41.488644     -41.488644      1.9426069    
 635000000   2200.5679     -39.820956     -41.812076     -41.812076      1.9911201    
 636000000   2123.5039     -39.976915     -41.898306     -41.898306      1.921391     
 637000000   2073.4862     -39.757622     -41.633756     -41.633756      1.8761339    
 638000000   2183.444      -39.721855     -41.697481     -41.697481      1.975626     
 639000000   2123.2514     -39.886824     -41.807986     -41.807986      1.9211625    
 640000000   2154.0528     -39.700131     -41.649164     -41.649164      1.9490322    
 641000000   2232.3409     -39.635812     -41.655681     -41.655681      2.019869     
 642000000   2133.9011     -39.646983     -41.577782     -41.577782      1.9307986    
 643000000   2101.812      -40.343441     -42.245204     -42.245204      1.9017637    
 644000000   2204.4731     -39.523036     -41.51769      -41.51769       1.9946535    
 645000000   2335.895      -39.825309     -41.938876     -41.938876      2.1135669    
 646000000   2124.3223     -38.944676     -40.866808     -40.866808      1.9221315    
 647000000   2118.3029     -40.361912     -42.278597     -42.278597      1.916685     
 648000000   2050.2343     -39.155284     -41.010379     -41.010379      1.8550951    
 649000000   2100.0892     -40.470835     -42.37104      -42.37104       1.9002048    
 650000000   2094.7863     -39.528166     -41.423573     -41.423573      1.8954067    
 651000000   2170.2813     -38.487628     -40.451345     -40.451345      1.9637161    
 652000000   2131.8702     -39.76008      -41.689041     -41.689041      1.928961     
 653000000   2154.651      -40.573591     -42.523164     -42.523164      1.9495735    
 654000000   2103.1688     -39.123892     -41.026883     -41.026883      1.9029913    
 655000000   2165.9718     -40.259528     -42.219345     -42.219345      1.9598168    
 656000000   2212.6794     -39.458456     -41.460535     -41.460535      2.0020788    
 657000000   2203.3925     -39.722801     -41.716476     -41.716476      1.9936759    
 658000000   2134.1856     -39.126655     -41.057711     -41.057711      1.931056     
 659000000   2166.0847     -37.868086     -39.828005     -39.828005      1.9599189    
 660000000   2242.6107     -39.734688     -41.763849     -41.763849      2.0291613    
 661000000   2086.7517     -39.410761     -41.298898     -41.298898      1.8881368    
 662000000   2235.6971     -39.856779     -41.879685     -41.879685      2.0229057    
 663000000   2217.0733     -39.764474     -41.770528     -41.770528      2.0060545    
 664000000   2182.8226     -39.740329     -41.715393     -41.715393      1.9750637    
 665000000   2187.1874     -39.745975     -41.724988     -41.724988      1.9790131    
 666000000   2163.4103     -39.140927     -41.098426     -41.098426      1.9574991    
 667000000   2263.9606     -38.851924     -40.900403     -40.900403      2.0484792    
 668000000   2279.9817     -39.872992     -41.935968     -41.935968      2.0629753    
 669000000   2154.7954     -39.862807     -41.812511     -41.812511      1.9497042    
 670000000   2176.345      -40.300481     -42.269684     -42.269684      1.9692027    
 671000000   2087.8388     -39.911758     -41.800878     -41.800878      1.8891204    
 672000000   2206.2476     -39.255406     -41.251666     -41.251666      1.9962592    
 673000000   2173.9165     -39.336845     -41.303851     -41.303851      1.9670053    
 674000000   2223.6106     -39.126437     -41.138406     -41.138406      2.0119696    
 675000000   2153.1159     -40.55808      -42.506265     -42.506265      1.9481845    
 676000000   2134.4492     -39.226705     -41.157999     -41.157999      1.9312945    
 677000000   2030.5485     -38.268006     -40.105289     -40.105289      1.837283     
 678000000   2303.7293     -39.6152       -41.699663     -41.699663      2.0844627    
 679000000   2152.1907     -40.158016     -42.105363     -42.105363      1.9473474    
 680000000   2320.6534     -39.905918     -42.005694     -42.005694      2.0997759    
 681000000   2193.3063     -40.068841     -42.053391     -42.053391      1.9845496    
 682000000   2298.5876     -40.088355     -42.168166     -42.168166      2.0798104    
 683000000   2307.1457     -40.384429     -42.471983     -42.471983      2.0875539    
 684000000   2333.1094     -39.477495     -41.588542     -41.588542      2.1110464    
 685000000   2316.5548     -39.919562     -42.015629     -42.015629      2.0960674    
 686000000   2306.2215     -39.083066     -41.169784     -41.169784      2.0867177    
 687000000   2310.3266     -39.346254     -41.436686     -41.436686      2.0904321    
 688000000   2315.2461     -40.577689     -42.672572     -42.672572      2.0948834    
 689000000   2236.0459     -40.472371     -42.495592     -42.495592      2.0232213    
 690000000   2281.0589     -39.826183     -41.890133     -41.890133      2.06395      
 691000000   2289.1007     -39.675569     -41.746796     -41.746796      2.0712265    
 692000000   2227.9336     -39.495012     -41.510893     -41.510893      2.0158812    
 693000000   2365.3532     -39.149139     -41.28936      -41.28936       2.1402213    
 694000000   2203.3569     -40.225806     -42.21945      -42.21945       1.9936436    
 695000000   2342.6044     -39.256104     -41.375742     -41.375742      2.1196377    
 696000000   2289.3224     -40.563652     -42.635079     -42.635079      2.0714271    
 697000000   2343.4334     -39.650705     -41.771093     -41.771093      2.1203878    
 698000000   2218.8994     -39.68699      -41.694696     -41.694696      2.0077068    
 699000000   2256.5568     -39.429014     -41.470794     -41.470794      2.04178      
 700000000   2215.9063     -38.664632     -40.66963      -40.66963       2.0049986    
 701000000   2278.4389     -39.782043     -41.843623     -41.843623      2.0615794    
 702000000   2346.949      -38.498937     -40.622506     -40.622506      2.1235688    
 703000000   2330.3575     -39.873915     -41.982471     -41.982471      2.1085564    
 704000000   2229.2484     -38.815567     -40.832638     -40.832638      2.0170708    
 705000000   2315.2673     -38.657898     -40.752801     -40.752801      2.0949025    
 706000000   2220.8406     -39.955964     -41.965427     -41.965427      2.0094633    
 707000000   2269.6113     -39.732504     -41.786096     -41.786096      2.053592     
 708000000   2140.1566     -39.326139     -41.262598     -41.262598      1.9364586    
 709000000   2331.2552     -39.814662     -41.924031     -41.924031      2.1093687    
 710000000   2332.2375     -39.43676      -41.547018     -41.547018      2.1102575    
 711000000   2339.0397     -38.544196     -40.660608     -40.660608      2.1164123    
 712000000   2366.9531     -38.64722      -40.788889     -40.788889      2.1416689    
 713000000   2243.1991     -39.944748     -41.974442     -41.974442      2.0296936    
 714000000   2175.7695     -39.155468     -41.12415      -41.12415       1.968682     
 715000000   2353.7787     -39.783306     -41.913055     -41.913055      2.1297485    
 716000000   2283.4817     -39.553741     -41.619884     -41.619884      2.0661422    
 717000000   2246.0506     -39.466329     -41.498603     -41.498603      2.0322737    
 718000000   2384.198      -39.066097     -41.223369     -41.223369      2.1572725    
 719000000   2311.9609     -39.330058     -41.421969     -41.421969      2.0919108    
 720000000   2352.4187     -39.753428     -41.881946     -41.881946      2.1285178    
 721000000   2329.8954     -39.393001     -41.501139     -41.501139      2.1081383    
 722000000   2328.9893     -39.883698     -41.991017     -41.991017      2.1073185    
 723000000   2421.4202     -40.284275     -42.475227     -42.475227      2.1909518    
 724000000   2296.4185     -38.548192     -40.62604      -40.62604       2.0778477    
 725000000   2300.1496     -39.428954     -41.510178     -41.510178      2.0812237    
 726000000   2223.3083     -39.440314     -41.45201      -41.45201       2.0116961    
 727000000   2407.2254     -40.575193     -42.753301     -42.753301      2.1781081    
 728000000   2235.6362     -38.835684     -40.858535     -40.858535      2.0228506    
 729000000   2263.3859     -38.884711     -40.93267      -40.93267       2.0479591    
 730000000   2408.4753     -39.659946     -41.839185     -41.839185      2.1792391    
 731000000   2339.0314     -39.129532     -41.245937     -41.245937      2.1164048    
 732000000   2425.3063     -40.052713     -42.247181     -42.247181      2.1944681    
 733000000   2402.746      -39.192538     -41.366593     -41.366593      2.1740551    
 734000000   2418.1175     -39.333802     -41.521765     -41.521765      2.1879635    
 735000000   2388.1606     -39.87627      -42.037128     -42.037128      2.1608579    
 736000000   2426.2947     -39.492917     -41.68828      -41.68828       2.1953624    
 737000000   2331.0098     -39.537759     -41.646906     -41.646906      2.1091467    
 738000000   2413.9126     -38.928581     -41.11274      -41.11274       2.1841589    
 739000000   2418.5451     -39.037323     -41.225673     -41.225673      2.1883504    
 740000000   2620.5211     -37.026255     -39.397357     -39.397357      2.3711026    
 741000000   2386.2312     -39.680896     -41.840008     -41.840008      2.1591122    
 742000000   2379.1306     -37.508439     -39.661126     -39.661126      2.1526873    
 743000000   2367.8354     -39.921238     -42.063705     -42.063705      2.1424672    
 744000000   2270.4496     -38.972113     -41.026464     -41.026464      2.0543505    
 745000000   2531.8605     -40.212625     -42.503505     -42.503505      2.2908806    
 746000000   2339.5191     -39.45978      -41.576626     -41.576626      2.116846     
 747000000   2275.5906     -39.187805     -41.246807     -41.246807      2.0590022    
 748000000   2127.5534     -39.162227     -41.087282     -41.087282      1.925055     
 749000000   2373.6361     -39.651874     -41.79959      -41.79959       2.1477158    
 750000000   2322.023      -39.739014     -41.840029     -41.840029      2.1010152    
 751000000   2386.5284     -39.938763     -42.098144     -42.098144      2.159381     
 752000000   2283.4577     -39.383546     -41.449667     -41.449667      2.0661205    
 753000000   2455.1991     -39.235999     -41.457515     -41.457515      2.2215157    
 754000000   2157.1399     -39.467867     -41.419692     -41.419692      1.9518255    
 755000000   2456.0194     -39.922977     -42.145235     -42.145235      2.2222579    
 756000000   2584.6812     -38.688697     -41.027371     -41.027371      2.3386739    
 757000000   2392.5393     -40.182576     -42.347396     -42.347396      2.1648198    
 758000000   2452.1477     -39.452506     -41.671261     -41.671261      2.2187548    
 759000000   2389.5825     -39.047125     -41.209269     -41.209269      2.1621444    
 760000000   2365.1894     -38.660116     -40.800189     -40.800189      2.1400731    
 761000000   2321.1267     -39.795964     -41.896168     -41.896168      2.1002042    
 762000000   2545.1696     -39.372176     -41.675099     -41.675099      2.302923     
 763000000   2358.0832     -38.749214     -40.882858     -40.882858      2.1336432    
 764000000   2510.1198     -38.385311     -40.65652      -40.65652       2.2712092    
 765000000   2494.6818     -37.860569     -40.11781      -40.11781       2.2572406    
 766000000   2392.2383     -39.387921     -41.552468     -41.552468      2.1645475    
 767000000   2446.269      -39.749631     -41.963067     -41.963067      2.2134356    
 768000000   2457.1638     -40.006424     -42.229717     -42.229717      2.2232935    
 769000000   2459.0499     -39.184187     -41.409187     -41.409187      2.225        
 770000000   2445.3262     -39.179224     -41.391807     -41.391807      2.2125826    
 771000000   2472.1319     -39.363534     -41.600371     -41.600371      2.2368369    
 772000000   2409.1748     -38.87273      -41.052602     -41.052602      2.1798719    
 773000000   2410.0045     -39.860182     -42.040804     -42.040804      2.1806227    
 774000000   2469.4945     -38.567214     -40.801665     -40.801665      2.2344505    
 775000000   2511.094      -38.530289     -40.80238      -40.80238       2.2720906    
 776000000   2573.872      -39.036073     -41.364967     -41.364967      2.3288935    
 777000000   2592.2743     -38.569639     -40.915183     -40.915183      2.3455443    
 778000000   2565.3764     -38.240319     -40.561525     -40.561525      2.3212064    
 779000000   2481.6101     -40.247217     -42.49263      -42.49263       2.245413     
 780000000   2518.9163     -38.476104     -40.755272     -40.755272      2.2791684    
 781000000   2503.3864     -38.785496     -41.050613     -41.050613      2.2651166    
 782000000   2312.1486     -39.595403     -41.687484     -41.687484      2.0920806    
 783000000   2443.1551     -38.75998      -40.970598     -40.970598      2.2106181    
 784000000   2410.1952     -39.598455     -41.779251     -41.779251      2.1807953    
 785000000   2586.4189     -39.772093     -42.112339     -42.112339      2.3402461    
 786000000   2453.1071     -39.083712     -41.303335     -41.303335      2.2196228    
 787000000   2442.7842     -39.017674     -41.227956     -41.227956      2.2102824    
 788000000   2548.3412     -40.146295     -42.452088     -42.452088      2.3057927    
 789000000   2472.0165     -40.249872     -42.486605     -42.486605      2.2367325    
 790000000   2411.6774     -38.948601     -41.130737     -41.130737      2.1821364    
 791000000   2546.5094     -39.564558     -41.868693     -41.868693      2.3041352    
 792000000   2538.7104     -38.833858     -41.130936     -41.130936      2.2970785    
 793000000   2453.0292     -38.782191     -41.001743     -41.001743      2.2195524    
 794000000   2302.4282     -38.608738     -40.692023     -40.692023      2.0832854    
 795000000   2546.5793     -39.571872     -41.87607      -41.87607       2.3041985    
 796000000   2359.43       -39.299055     -41.433917     -41.433917      2.1348618    
 797000000   2667.3778     -38.698849     -41.112349     -41.112349      2.4134995    
 798000000   2568.0195     -38.851226     -41.174824     -41.174824      2.323598     
 799000000   2440.8272     -39.087606     -41.296118     -41.296118      2.2085117    
 800000000   2567.6062     -39.450042     -41.773266     -41.773266      2.323224     
 801000000   2391.671      -38.274274     -40.438308     -40.438308      2.1640342    
 802000000   2520.4637     -38.472311     -40.75288      -40.75288       2.2805686    
 803000000   2421.838      -38.888719     -41.080049     -41.080049      2.1913299    
 804000000   2365.9306     -39.321234     -41.461978     -41.461978      2.1407437    
 805000000   2583.7408     -39.52802      -41.865843     -41.865843      2.3378229    
 806000000   2530.693      -40.400154     -42.689978     -42.689978      2.2898243    
 807000000   2452.9866     -38.735093     -40.954607     -40.954607      2.2195138    
 808000000   2497.1507     -39.252356     -41.51183      -41.51183       2.2594744    
 809000000   2694.465      -39.459188     -41.897197     -41.897197      2.4380085    
 810000000   2568.1675     -37.392483     -39.716215     -39.716215      2.323732     
 811000000   2544.4178     -38.638854     -40.941097     -40.941097      2.3022427    
 812000000   2575.1115     -39.158767     -41.488782     -41.488782      2.330015     
 813000000   2660.9749     -38.498164     -40.90587      -40.90587       2.407706     
 814000000   2679.4539     -39.114131     -41.538557     -41.538557      2.4244262    
 815000000   2490.3941     -38.732977     -40.986338     -40.986338      2.2533609    
 816000000   2452.2518     -38.50511      -40.723959     -40.723959      2.218849     
 817000000   2540.4929     -39.522418     -41.821109     -41.821109      2.2986913    
 818000000   2522.5687     -38.330385     -40.612858     -40.612858      2.2824732    
 819000000   2553.342      -38.34283      -40.653147     -40.653147      2.3103175    
 820000000   2540.2258     -39.584682     -41.883131     -41.883131      2.2984497    
 821000000   2622.3781     -39.008695     -41.381477     -41.381477      2.3727828    
 822000000   2480.6471     -39.184762     -41.429303     -41.429303      2.2445417    
 823000000   2577.7796     -39.564593     -41.897022     -41.897022      2.3324291    
 824000000   2734.4757     -38.108421     -40.582632     -40.582632      2.4742111    
 825000000   2521.7531     -38.736739     -41.018474     -41.018474      2.2817352    
 826000000   2473.7211     -39.379566     -41.617841     -41.617841      2.2382748    
 827000000   2504.399      -38.730561     -40.996594     -40.996594      2.2660329    
 828000000   2508.2403     -38.583358     -40.852867     -40.852867      2.2695085    
 829000000   2659.5018     -39.063014     -41.469388     -41.469388      2.4063731    
 830000000   2620.8441     -39.274578     -41.645973     -41.645973      2.3713948    
 831000000   2693.8029     -39.217464     -41.654873     -41.654873      2.4374094    
 832000000   2618.8953     -36.055921     -38.425553     -38.425553      2.3696315    
 833000000   2602.1366     -35.691865     -38.046333     -38.046333      2.3544679    
 834000000   2500.5791     -38.136459     -40.399035     -40.399035      2.2625765    
 835000000   2606.9092     -37.850929     -40.209715     -40.209715      2.3587862    
 836000000   2714.7375     -38.319186     -40.775537     -40.775537      2.4563515    
 837000000   2602.3751     -37.716782     -40.071466     -40.071466      2.3546837    
 838000000   2672.9201     -38.763373     -41.181887     -41.181887      2.4185143    
 839000000   2804.2761     -38.790719     -41.328087     -41.328087      2.5373679    
 840000000   2634.2907     -38.37904      -40.762602     -40.762602      2.3835616    
 841000000   2668.4585     -39.636245     -42.050722     -42.050722      2.4144774    
 842000000   2539.6924     -38.310915     -40.608882     -40.608882      2.2979671    
 843000000   2667.0682     -39.261191     -41.674411     -41.674411      2.4132193    
 844000000   2657.1524     -38.416967     -40.821214     -40.821214      2.4042473    
 845000000   2784.0159     -38.781005     -41.300041     -41.300041      2.5190361    
 846000000   2391.2352     -39.330673     -41.494312     -41.494312      2.1636399    
 847000000   2601.2519     -39.50451      -41.858177     -41.858177      2.3536674    
 848000000   2703.4173     -37.232333     -39.678442     -39.678442      2.4461088    
 849000000   2784.0871     -39.027718     -41.546818     -41.546818      2.5191005    
 850000000   2786.252      -38.282594     -40.803653     -40.803653      2.5210593    
 851000000   2625.7901     -38.927442     -41.303312     -41.303312      2.37587      
 852000000   2710.5642     -39.425721     -41.878296     -41.878296      2.4525754    
 853000000   2606.7992     -39.526298     -41.884985     -41.884985      2.3586867    
 854000000   2901.8983     -36.282668     -38.908367     -38.908367      2.6256986    
 855000000   2511.0606     -39.313672     -41.585733     -41.585733      2.2720604    
 856000000   2432.106      -38.925397     -41.126017     -41.126017      2.2006207    
 857000000   2726.6403     -39.171508     -41.638629     -41.638629      2.4671214    
 858000000   2642.0137     -38.894553     -41.285103     -41.285103      2.3905495    
 859000000   2733.3825     -38.936405     -41.409627     -41.409627      2.473222     
 860000000   2741.284      -38.870464     -41.350835     -41.350835      2.4803714    
 861000000   2532.9661     -40.21579      -42.507671     -42.507671      2.2918809    
 862000000   2638.1518     -38.188611     -40.575666     -40.575666      2.3870552    
 863000000   2586.4825     -38.950666     -41.290969     -41.290969      2.3403037    
 864000000   2600.843      -39.483867     -41.837164     -41.837164      2.3532974    
 865000000   2817.7828     -38.424391     -40.97398      -40.97398       2.5495891    
 866000000   2807.7223     -39.083733     -41.624219     -41.624219      2.5404862    
 867000000   2665.9009     -39.059335     -41.471498     -41.471498      2.4121631    
 868000000   2669.6402     -39.018046     -41.433593     -41.433593      2.4155466    
 869000000   2628.6036     -38.062783     -40.441199     -40.441199      2.3784158    
 870000000   2605.2077     -39.141866     -41.499113     -41.499113      2.3572467    
 871000000   2564.0473     -36.952494     -39.272498     -39.272498      2.3200039    
 872000000   2617.6382     -38.803053     -41.171548     -41.171548      2.3684941    
 873000000   2562.6054     -39.435081     -41.75378      -41.75378       2.3186992    
 874000000   2580.9031     -38.075091     -40.410346     -40.410346      2.3352554    
 875000000   2704.8474     -39.143646     -41.591048     -41.591048      2.4474027    
 876000000   2500.6722     -35.314384     -37.577045     -37.577045      2.2626608    
 877000000   2886.7284     -39.002381     -41.614354     -41.614354      2.6119725    
 878000000   2664.1707     -38.249892     -40.660489     -40.660489      2.4105976    
 879000000   2524.2818     -37.72336      -40.007383     -40.007383      2.2840232    
 880000000   2619.0268     -35.267008     -37.636758     -37.636758      2.3697505    
 881000000   2712.8876     -37.727581     -40.182258     -40.182258      2.4546777    
 882000000   2677.0623     -39.400599     -41.822861     -41.822861      2.4222622    
 883000000   2764.5434     -38.230011     -40.731428     -40.731428      2.501417     
 884000000   2673.1623     -38.2684       -40.687134     -40.687134      2.4187334    
 885000000   2681.0089     -39.03894      -41.464774     -41.464774      2.4258332    
 886000000   2742.353      -39.375315     -41.856654     -41.856654      2.4813386    
 887000000   2642.3452     -38.774989     -41.165838     -41.165838      2.3908495    
 888000000   2747.6655     -37.359545     -39.845691     -39.845691      2.4861455    
 889000000   2747.2572     -38.648611     -41.134387     -41.134387      2.485776     
 890000000   2766.0926     -40.294865     -42.797684     -42.797684      2.5028187    
 891000000   2606.2734     -38.899256     -41.257467     -41.257467      2.3582109    
 892000000   2669.9625     -38.125537     -40.541375     -40.541375      2.4158382    
 893000000   2759.6727     -38.675222     -41.172231     -41.172231      2.4970099    
 894000000   2682.7344     -38.195546     -40.62294      -40.62294       2.4273945    
 895000000   2712.1281     -37.70181      -40.155801     -40.155801      2.4539905    
 896000000   2784.5936     -36.970146     -39.489705     -39.489705      2.5195589    
 897000000   2690.3689     -38.031067     -40.46537      -40.46537       2.4343023    
 898000000   2834.3415     -38.03908      -40.603651     -40.603651      2.5645718    
 899000000   2598.4218     -38.849525     -41.200631     -41.200631      2.3511066    
 900000000   2899.8114     -39.790432     -42.414242     -42.414242      2.6238103    
 901000000   2657.8396     -38.205698     -40.610567     -40.610567      2.4048691    
 902000000   2766.8421     -37.09167      -39.595167     -39.595167      2.5034968    
 903000000   2671.8874     -38.198106     -40.615686     -40.615686      2.4175798    
 904000000   2780.4136     -39.14668      -41.662457     -41.662457      2.5157766    
 905000000   2798.3586     -38.513683     -41.045697     -41.045697      2.5320137    
 906000000   2780.2813     -39.746332     -42.261988     -42.261988      2.515657     
 907000000   2731.7604     -38.858003     -41.329757     -41.329757      2.4717542    
 908000000   2739.0412     -37.689779     -40.168121     -40.168121      2.4783421    
 909000000   2661.9974     -37.978428     -40.38706      -40.38706       2.4086312    10000000   2573.8473     -37.511534     -39.840405     -39.840405      2.3288711    
 911000000   2680.6789     -38.566804     -40.992339     -40.992339      2.4255346    
 912000000   2819.4695     -37.860799     -40.411914     -40.411914      2.5511153    
 913000000   2759.1497     -38.418932     -40.915469     -40.915469      2.4965367    
 914000000   2881.298      -37.201041     -39.808099     -39.808099      2.6070589    
 915000000   2682.9416     -37.645146     -40.072728     -40.072728      2.4275819    
 916000000   2682.3707     -39.597914     -42.02498      -42.02498       2.4270654    
 917000000   2817.482      -37.29082      -39.840137     -39.840137      2.549317     
 918000000   2681.6233     -37.858601     -40.28499      -40.28499       2.4263891    
 919000000   2766.115      -38.743569     -41.246408     -41.246408      2.5028389    
 920000000   2752.7391     -39.327036     -41.817772     -41.817772      2.4907362    
 921000000   2800.6096     -38.760607     -41.294657     -41.294657  