LAMMPS (7 Feb 2024 - Update 1)
OMP_NUM_THREADS environment is not set. Defaulting to 1 thread. (src/comm.cpp:98)
  using 1 OpenMP thread(s) per MPI task
#============Initialization=================
units 			metal
atom_style 		atomic
boundary 		p p p

############################################
#              CLI Variables               #
############################################
variable 		seed index 200093          #
variable 		N index 15                 #
variable 		iter index 1000000         #
variable 		iterther index 10000       #
variable 		iexport index 1000         #
variable 		tempchauf index 3000       #
variable 		Tdamp index 0.001          #
variable 		timestep index 0.0001      #
############################################
############################################
#=========Simulation box definition=========
lattice 		sc 1.0
Lattice spacing in x,y,z = 1 1 1
region 			bigbox block 0 40 0 40 0 40
create_box 		1 bigbox
Created orthogonal box = (0 0 0) to (40 40 40)
  1 by 1 by 1 MPI processor grid

#==================Atoms====================
region 			safezone block 20 30 20 30 20 30 units box
create_atoms 	1 random ${N} ${seed} safezone
create_atoms 	1 random 15 ${seed} safezone
create_atoms 	1 random 15 200093 safezone
Created 15 atoms
  using lattice units in orthogonal box = (0 0 0) to (40 40 40)
  create_atoms CPU = 0.000 seconds
labelmap 		atom 1 C
mass 			* 12.01



#==========Velocity initialization==========
velocity 		all create 0.0000001 1563967 rot yes dist gaussian

#======Pair style for atom interactions=============
pair_style 		airebo 1.8 1 1
pair_coeff 		* * CH.airebo C
Reading airebo potential file CH.airebo with DATE: 2011-10-25

#==============Neighbor selection===================
neighbor 		0.3 bin
neigh_modify 	every 1 delay 0 check yes



#==============Custom Wall force====================
#==========Wall with harmonic potential=============
#variable       k equal 10.0

#fix             xlo_wall all wall/harmonic xlo EDGE v_k 1.0 0.7
#fix             xhi_wall all wall/harmonic xhi EDGE v_k 1.0 0.7
#fix             ylo_wall all wall/harmonic ylo EDGE v_k 1.0 0.7
#fix             yhi_wall all wall/harmonic yhi EDGE v_k 1.0 0.7
#fix             zlo_wall all wall/harmonic zlo EDGE v_k 1.0 0.7
#fix             zhi_wall all wall/harmonic zhi EDGE v_k 1.0 0.7



#=====================Timestep======================
timestep 		${timestep}
timestep 		0.0001

#===============Define dump command=================
dump 			1 all cfg 100000 ./dump/dump.tensile_*.cfg mass type xs ys zs vx vy vz id

#========System temperature printing info===========
thermo_style 	custom step temp etotal epair pe ke
thermo 			${iexport}	# 1'000'000
thermo 			1000	



#====================CRC Cycle======================

#=============Condensation et chauffe===============

# Minimize during the heating phase
#min_style       sd
#minimize        1.0e-5 1.0e-7 500 1000

fix 			1 all nve
fix 			2 all temp/berendsen 0.0 ${tempchauf} ${Tdamp}
fix 			2 all temp/berendsen 0.0 3000 ${Tdamp}
fix 			2 all temp/berendsen 0.0 3000 0.001
fix             3 all momentum 1 linear 1 1 1 angular rescale

run 			${iter}
run 			1000000
Neighbor list info ...
  update: every = 1 steps, delay = 0 steps, check = yes
  max neighbors/atom: 2000, page size: 100000
  master list distance cutoff = 8.116371
  ghost atom cutoff = 8.116371
  binsize = 4.0581855, bins = 10 10 10
  1 neighbor lists, perpetual/occasional/extra = 1 0 0
  (1) pair airebo, perpetual
      attributes: full, newton on, ghost
      pair build: full/bin/ghost
      stencil: full/ghost/bin/3d
      bin: standard
Per MPI rank memory allocation (min/avg/max) = 3.888 | 3.888 | 3.888 Mbytes
   Step          Temp          TotEng         E_pair         PotEng         KinEng    
         0   1e-07          150.64958      150.64958      150.64958      1.809642e-10 
      1000   3.0900846     -12.465064     -12.470656     -12.470656      0.005591947  
      2000   5.9059224     -12.466542     -12.477229     -12.477229      0.010687605  
      3000   8.86527       -12.462334     -12.478377     -12.478377      0.016042965  
      4000   11.856013     -12.456424     -12.477879     -12.477879      0.021455139  
      5000   14.905506     -12.451994     -12.478968     -12.478968      0.02697363   
      6000   22.47396      -18.615177     -18.655847     -18.655847      0.040669822  
      7000   20.659892     -18.655898     -18.693285     -18.693285      0.03738701   
      8000   24.653649     -18.650862     -18.695476     -18.695476      0.04461428   
      9000   27.486966     -18.647799     -18.697541     -18.697541      0.04974157   
     10000   30.127433     -18.643693     -18.698212     -18.698212      0.05451987   
     11000   32.819064     -18.637403     -18.696794     -18.696794      0.059390757  
     12000   35.679916     -18.623331     -18.687899     -18.687899      0.064567876  
     13000   38.65886      -18.62069      -18.690649     -18.690649      0.069958698  
     14000   48.144089     -25.212369     -25.299493     -25.299493      0.087123567  
     15000   41.378775     -25.270125     -25.345006     -25.345006      0.07488077   
     16000   53.873723     -25.166549     -25.264042     -25.264042      0.097492154  
     17000   47.14238      -25.173084     -25.258395     -25.258395      0.085310831  
     18000   61.412605     -31.459049     -31.570184     -31.570184      0.11113483   
     19000   61.223245     -31.317125     -31.427917     -31.427917      0.11079216   
     20000   57.80094      -31.383381     -31.48798      -31.48798       0.10459901   
     21000   59.626488     -31.460491     -31.568394     -31.568394      0.1079026    
     22000   63.61555      -31.479164     -31.594285     -31.594285      0.11512137   
     23000   84.831448     -37.769792     -37.923307     -37.923307      0.15351455   
     24000   74.311486     -38.162435     -38.296912     -38.296912      0.13447719   
     25000   67.51167      -37.845475     -37.967647     -37.967647      0.12217196   
     26000   76.713808     -38.149206     -38.288031     -38.288031      0.13882453   
     27000   86.445666     -38.073837     -38.230272     -38.230272      0.15643571   
     28000   87.251278     -37.980608     -38.138501     -38.138501      0.15789358   
     29000   87.228154     -37.97347      -38.131322     -38.131322      0.15785173   
     30000   88.708567     -38.006653     -38.167184     -38.167184      0.16053075   
     31000   90.508665     -38.015681     -38.179469     -38.179469      0.16378828   
     32000   147.39945     -43.933228     -44.199968     -44.199968      0.26674024   
     33000   102.6109      -44.258115     -44.443804     -44.443804      0.185689     
     34000   102.40948     -44.299857     -44.485181     -44.485181      0.1853245    
     35000   108.79981     -44.282891     -44.47978      -44.47978       0.19688871   
     36000   183.76263     -48.080723     -48.413268     -48.413268      0.33254457   
     37000   129.64995     -50.347159     -50.581779     -50.581779      0.23462001   
     38000   112.64159     -50.98633      -51.190171     -51.190171      0.20384095   
     39000   127.19545     -50.526531     -50.756709     -50.756709      0.23017823   
     40000   272.19421     -54.476811     -54.969385     -54.969385      0.49257409   
     41000   116.48309     -56.731559     -56.942352     -56.942352      0.21079269   
     42000   121.2748      -56.89017      -57.109634     -57.109634      0.21946397   
     43000   111.60737     -56.818137     -57.020106     -57.020106      0.20196938   
     44000   133.03255     -56.735437     -56.976178     -56.976178      0.2407413    
     45000   142.72683     -56.566533     -56.824817     -56.824817      0.25828448   
     46000   136.55366     -56.919168     -57.166281     -57.166281      0.24711324   
     47000   127.90718     -57.001907     -57.233373     -57.233373      0.2314662    
     48000   147.86718     -61.949324     -62.216911     -62.216911      0.26758667   
     49000   143.89535     -62.514553     -62.774952     -62.774952      0.26039908   
     50000   150.01296     -62.092661     -62.364131     -62.364131      0.27146976   
     51000   159.21567     -61.884501     -62.172624     -62.172624      0.28812337   
     52000   158.21008     -62.469742     -62.756046     -62.756046      0.28630362   
     53000   146.68699     -62.134116     -62.399567     -62.399567      0.26545095   
     54000   171.7315      -62.050316     -62.361088     -62.361088      0.31077254   
     55000   165.97396     -62.453216     -62.75357      -62.75357       0.30035345   
     56000   173.82729     -61.77773      -62.092296     -62.092296      0.31456516   
     57000   176.55269     -62.340731     -62.660228     -62.660228      0.31949717   
     58000   166.14343     -62.235174     -62.535834     -62.535834      0.30066013   
     59000   176.69064     -62.064951     -62.384698     -62.384698      0.31974681   
     60000   180.18202     -62.406744     -62.732809     -62.732809      0.32606495   
     61000   178.98649     -66.130128     -66.454029     -66.454029      0.32390148   
     62000   177.28207     -66.542018     -66.862835     -66.862835      0.32081708   
     63000   186.4124      -66.408788     -66.746128     -66.746128      0.33733972   
     64000   172.41364     -66.065663     -66.37767      -66.37767       0.31200696   
     65000   202.268       -66.489285     -66.855317     -66.855317      0.36603268   
     66000   180.9799      -66.196252     -66.52376      -66.52376       0.32750884   
     67000   207.11134     -66.185246     -66.560043     -66.560043      0.37479739   
     68000   194.76335     -66.388727     -66.741178     -66.741178      0.35245195   
     69000   197.9167      -66.271276     -66.629435     -66.629435      0.35815837   
     70000   212.75067     -66.360644     -66.745647     -66.745647      0.38500255   
     71000   213.20756     -66.385598     -66.771427     -66.771427      0.38582935   
     72000   203.89927     -66.183014     -66.551999     -66.551999      0.3689847    
     73000   228.86264     -66.468363     -66.882523     -66.882523      0.41415946   
     74000   219.32194     -66.337301     -66.734195     -66.734195      0.39689419   
     75000   223.55898     -66.340702     -66.745264     -66.745264      0.40456172   
     76000   224.02637     -66.473141     -66.878549     -66.878549      0.40540753   
     77000   219.72026     -66.142346     -66.539961     -66.539961      0.39761501   
     78000   228.11244     -66.322107     -66.734909     -66.734909      0.41280186   
     79000   237.72433     -66.420084     -66.85028      -66.85028       0.43019594   
     80000   239.55227     -66.27307      -66.706574     -66.706574      0.43350385   
     81000   234.64522     -66.469945     -66.894569     -66.894569      0.42462384   
     82000   236.84121     -66.308925     -66.737523     -66.737523      0.42859781   
     83000   244.99229     -66.266181     -66.70953      -66.70953       0.44334834   
     84000   253.11133     -66.386036     -66.844077     -66.844077      0.45804091   
     85000   250.6849      -66.260774     -66.714423     -66.714423      0.45364993   
     86000   256.91296     -66.365261     -66.830182     -66.830182      0.4649205    
     87000   262.86651     -66.32086      -66.796554     -66.796554      0.47569428   
     88000   266.59259     -66.362282     -66.844719     -66.844719      0.48243715   
     89000   276.13765     -66.372713     -66.872424     -66.872424      0.4997103    
     90000   260.82823     -66.346978     -66.818984     -66.818984      0.47200572   
     91000   278.59832     -66.36993      -66.874093     -66.874093      0.50416324   
     92000   280.3027      -66.310904     -66.818152     -66.818152      0.50724755   
     93000   274.72837     -66.34381      -66.84097      -66.84097       0.49716001   
     94000   280.26212     -66.282326     -66.789501     -66.789501      0.5071741    
     95000   291.77907     -66.324669     -66.852684     -66.852684      0.52801567   
     96000   282.19584     -66.364426     -66.8751       -66.8751        0.51067346   
     97000   299.03477     -66.311211     -66.852357     -66.852357      0.54114589   
     98000   289.24863     -66.32782      -66.851257     -66.851257      0.52343648   
     99000   294.24802     -66.300236     -66.83272      -66.83272       0.53248359   
    100000   296.20574     -66.312234     -66.848261     -66.848261      0.53602635   
    101000   307.00343     -66.27743      -66.832996     -66.832996      0.55556632   
    102000   308.02128     -66.367439     -66.924847     -66.924847      0.55740825   
    103000   303.29673     -66.321958     -66.870816     -66.870816      0.54885852   
    104000   307.87268     -66.34938      -66.90652      -66.90652       0.55713934   
    105000   315.95223     -66.285678     -66.857439     -66.857439      0.57176043   
    106000   321.71565     -66.3371       -66.91929      -66.91929       0.58219016   
    107000   323.41463     -66.334023     -66.919288     -66.919288      0.58526471   
    108000   325.27166     -66.324123     -66.912748     -66.912748      0.58862526   
    109000   328.97021     -66.312245     -66.907563     -66.907563      0.59531833   
    110000   333.15213     -66.269504     -66.872391     -66.872391      0.6028861    
    111000   333.30655     -66.253257     -66.856423     -66.856423      0.60316553   
    112000   334.99927     -66.313999     -66.920227     -66.920227      0.60622876   
    113000   338.58904     -66.278263     -66.890987     -66.890987      0.61272497   
    114000   339.14796     -66.242205     -66.855942     -66.855942      0.6137364    
    115000   348.6906      -66.265239     -66.896244     -66.896244      0.63100516   
    116000   353.91102     -66.262375     -66.902827     -66.902827      0.64045225   
    117000   352.53131     -66.30776      -66.945716     -66.945716      0.63795547   
    118000   356.65391     -66.254089     -66.899505     -66.899505      0.6454159    
    119000   357.64842     -66.250142     -66.897358     -66.897358      0.64721562   
    120000   364.04678     -66.243886     -66.90268      -66.90268       0.65879435   
    121000   360.86362     -66.274588     -66.927622     -66.927622      0.65303397   
    122000   368.23708     -66.298137     -66.964515     -66.964515      0.66637729   
    123000   372.18768     -66.270852     -66.944379     -66.944379      0.67352647   
    124000   372.80986     -66.200504     -66.875156     -66.875156      0.67465239   
    125000   375.26702     -66.242627     -66.921726     -66.921726      0.67909897   
    126000   376.73178     -66.263168     -66.944918     -66.944918      0.68174967   
    127000   382.92821     -66.266812     -66.959775     -66.959775      0.69296298   
    128000   382.64319     -66.2298       -66.922247     -66.922247      0.69244719   
    129000   386.52152     -66.213882     -66.913347     -66.913347      0.69946559   
    130000   387.71427     -66.225931     -66.927555     -66.927555      0.70162405   
    131000   393.07947     -66.2097       -66.921033     -66.921033      0.71133312   
    132000   397.26877     -66.227184     -66.946098     -66.946098      0.71891427   
    133000   399.07995     -66.198307     -66.920499     -66.920499      0.72219185   
    134000   402.67594     -66.214453     -66.943153     -66.943153      0.72869931   
    135000   406.44453     -66.243801     -66.97932      -66.97932       0.73551911   
    136000   411.36673     -66.209426     -66.953853     -66.953853      0.74442652   
    137000   407.45671     -66.19731      -66.934661     -66.934661      0.73735078   
    138000   413.5513      -66.204971     -66.953351     -66.953351      0.74837981   
    139000   415.74375     -66.194694     -66.947041     -66.947041      0.75234737   
    140000   420.89548     -66.205095     -66.966765     -66.966765      0.76167015   
    141000   451.74257     -70.845539     -71.663031     -71.663031      0.81749235   
    142000   401.77278     -71.392085     -72.11915      -72.11915       0.72706491   
    143000   419.55975     -71.826662     -72.585915     -72.585915      0.75925296   
    144000   394.8741      -70.808687     -71.523267     -71.523267      0.71458077   
    145000   438.84071     -71.682102     -72.476247     -72.476247      0.79414459   
    146000   476.27592     -71.23907      -72.100959     -72.100959      0.86188892   
    147000   447.08157     -71.230524     -72.039581     -72.039581      0.8090576    
    148000   452.31201     -71.389322     -72.207845     -72.207845      0.81852283   
    149000   440.5716      -71.620874     -72.418151     -72.418151      0.79727688   
    150000   452.28091     -71.445676     -72.264143     -72.264143      0.81846654   
    151000   470.63765     -71.284706     -72.136392     -72.136392      0.85168568   
    152000   457.30083     -71.647709     -72.47526      -72.47526       0.82755079   
    153000   460.01243     -71.36298      -72.195438     -72.195438      0.83245782   
    154000   470.69908     -71.333705     -72.185501     -72.185501      0.85179684   
    155000   473.43104     -71.531525     -72.388266     -72.388266      0.8567407    
    156000   470.24955     -71.654421     -72.505404     -72.505404      0.85098334   
    157000   452.38501     -71.220275     -72.03893      -72.03893       0.81865492   
    158000   487.19836     -71.276247     -72.157902     -72.157902      0.88165463   
    159000   493.39587     -71.830254     -72.723124     -72.723124      0.89286991   
    160000   494.12283     -71.27796      -72.172145     -72.172145      0.89418544   
    161000   460.32436     -71.309843     -72.142865     -72.142865      0.83302231   
    162000   501.83698     -71.306361     -72.214506     -72.214506      0.90814528   
    163000   496.40335     -71.801258     -72.69957      -72.69957       0.89831236   
    164000   488.5154      -71.649351     -72.533389     -72.533389      0.884038     
    165000   525.90092     -70.969962     -71.921655     -71.921655      0.95169241   
    166000   512.56514     -71.291983     -72.219543     -72.219543      0.92755941   
    167000   504.44843     -71.780275     -72.693146     -72.693146      0.91287109   
    168000   499.60718     -71.415146     -72.319256     -72.319256      0.90411015   
    169000   508.02656     -71.263768     -72.183114     -72.183114      0.91934622   
    170000   514.91783     -71.891625     -72.823442     -72.823442      0.93181695   
    171000   491.68534     -71.472983     -72.362758     -72.362758      0.88977447   
    172000   529.32482     -71.315998     -72.273887     -72.273887      0.95788845   
    173000   510.52602     -71.777577     -72.701447     -72.701447      0.92386934   
    174000   505.21196     -71.907395     -72.821648     -72.821648      0.91425279   
    175000   509.47171     -71.495968     -72.417929     -72.417929      0.92196142   
    176000   539.32584     -71.430526     -72.406513     -72.406513      0.97598671   
    177000   541.07443     -71.783431     -72.762582     -72.762582      0.97915102   
    178000   516.47912     -71.595531     -72.530174     -72.530174      0.93464232   
    179000   555.4805      -71.403838     -72.409059     -72.409059      1.0052209    
    180000   552.44918     -71.86834      -72.868075     -72.868075      0.99973526   
    181000   554.32706     -71.729598     -72.732731     -72.732731      1.0031336    
    182000   548.39615     -71.668019     -72.66042      -72.66042       0.99240073   
    183000   547.85395     -71.701559     -72.692979     -72.692979      0.99141953   
    184000   549.65017     -71.816224     -72.810894     -72.810894      0.99467005   
    185000   557.3246      -71.595684     -72.604242     -72.604242      1.008558     
    186000   563.88257     -71.680877     -72.701302     -72.701302      1.0204256    
    187000   557.69198     -71.855936     -72.865158     -72.865158      1.0092229    
    188000   554.07677     -71.78363      -72.786311     -72.786311      1.0026806    
    189000   574.31323     -71.671972     -72.711274     -72.711274      1.0393014    
    190000   566.3945      -71.763413     -72.788384     -72.788384      1.0249713    
    191000   564.31971     -71.571906     -72.593123     -72.593123      1.0212167    
    192000   566.79338     -71.639344     -72.665037     -72.665037      1.0256931    
    193000   596.90146     -71.687734     -72.767912     -72.767912      1.080178     
    194000   589.12025     -71.726766     -72.792863     -72.792863      1.0660968    
    195000   585.21596     -71.657197     -72.716228     -72.716228      1.0590314    
    196000   576.12564     -71.678157     -72.720738     -72.720738      1.0425812    
    197000   601.02187     -71.569769     -72.657403     -72.657403      1.0876344    
    198000   599.0463      -71.691772     -72.775832     -72.775832      1.0840594    
    199000   588.64397     -71.806599     -72.871833     -72.871833      1.0652349    
    200000   609.76594     -71.597272     -72.70073      -72.70073       1.1034581    
    201000   602.98719     -71.710575     -72.801766     -72.801766      1.091191     
    202000   607.26377     -71.897736     -72.996666     -72.996666      1.09893      
    203000   609.14772     -71.607277     -72.709617     -72.709617      1.1023393    
    204000   617.65691     -71.82745      -72.945187     -72.945187      1.1177379    
    205000   609.17383     -71.83885      -72.941237     -72.941237      1.1023866    
    206000   611.21084     -71.724019     -72.830092     -72.830092      1.1060728    
    207000   624.51745     -71.749427     -72.87958      -72.87958       1.130153     
    208000   630.92534     -71.807968     -72.949717     -72.949717      1.141749     
    209000   638.2649      -71.701443     -72.856474     -72.856474      1.155031     
    210000   631.59141     -71.792623     -72.935577     -72.935577      1.1429544    
    211000   636.29604     -71.687776     -72.839244     -72.839244      1.1514681    
    212000   623.55058     -71.707537     -72.83594      -72.83594       1.1284033    
    213000   637.7132      -71.69807      -72.852103     -72.852103      1.1540326    
    214000   629.65715     -71.779183     -72.918637     -72.918637      1.139454     
    215000   652.71935     -71.734807     -72.915996     -72.915996      1.1811884    
    216000   657.08981     -71.692234     -72.881332     -72.881332      1.1890973    
    217000   643.5686      -71.747401     -72.91203      -72.91203       1.1646288    
    218000   652.96746     -71.659161     -72.840798     -72.840798      1.1816374    
    219000   648.27193     -71.690424     -72.863564     -72.863564      1.1731401    
    220000   657.78141     -71.724488     -72.914837     -72.914837      1.1903489    
    221000   662.10436     -71.663826     -72.861998     -72.861998      1.1981719    
    222000   661.47586     -71.692925     -72.889959     -72.889959      1.1970345    
    223000   663.16506     -71.748909     -72.949        -72.949         1.2000914    
    224000   672.23675     -71.703197     -72.919705     -72.919705      1.2165079    
    225000   678.42888     -71.792        -73.019713     -73.019713      1.2277134    
    226000   678.13236     -71.66246      -72.889637     -72.889637      1.2271768    
    227000   676.65664     -71.71834      -72.942847     -72.942847      1.2245063    
    228000   678.33281     -71.679793     -72.907332     -72.907332      1.2275396    
    229000   681.04628     -71.657625     -72.890075     -72.890075      1.23245      
    230000   685.11475     -71.726259     -72.966071     -72.966071      1.2398125    
    231000   689.88206     -71.67849      -72.92693      -72.92693       1.2484396    
    232000   694.92116     -71.696902     -72.95446      -72.95446       1.2575585    
    233000   692.0976      -71.7345       -72.986949     -72.986949      1.2524489    
    234000   703.44796     -71.734268     -73.007257     -73.007257      1.272989     
    235000   691.66269     -71.668901     -72.920563     -72.920563      1.2516619    
    236000   706.0881      -71.61961      -72.897377     -72.897377      1.2777667    
    237000   707.36171     -71.684394     -72.964466     -72.964466      1.2800715    
    238000   718.19023     -71.679516     -72.979183     -72.979183      1.2996672    
    239000   729.5882      -71.670212     -72.990505     -72.990505      1.3202935    
    240000   717.29717     -71.63672      -72.934771     -72.934771      1.2980511    
    241000   727.26438     -71.689224     -73.005312     -73.005312      1.3160882    
    242000   731.75059     -71.663964     -72.988171     -72.988171      1.3242066    
    243000   726.80232     -71.682034     -72.997287     -72.997287      1.315252     
    244000   726.08099     -71.676352     -72.990299     -72.990299      1.3139467    
    245000   732.74119     -71.705199     -73.031198     -73.031198      1.3259993    
    246000   739.03735     -71.633293     -72.970687     -72.970687      1.337393     
    247000   739.63709     -71.646953     -72.985431     -72.985431      1.3384784    
    248000   744.98011     -71.592596     -72.940744     -72.940744      1.3481473    
    249000   749.75864     -71.686194     -73.042989     -73.042989      1.3567947    
    250000   749.22815     -71.647592     -73.003427     -73.003427      1.3558348    
    251000   745.83932     -71.612296     -72.961999     -72.961999      1.3497022    
    252000   752.48937     -71.675292     -73.037029     -73.037029      1.3617364    
    253000   753.99719     -71.627867     -72.992332     -72.992332      1.364465     
    254000   763.70604     -71.645649     -73.027684     -73.027684      1.3820345    
    255000   766.44005     -71.676295     -73.063277     -73.063277      1.3869821    
    256000   770.73868     -71.690647     -73.085408     -73.085408      1.3947611    
    257000   777.19028     -71.600559     -73.006995     -73.006995      1.4064362    
    258000   770.70979     -71.648866     -73.043575     -73.043575      1.3947088    
    259000   775.42688     -71.647171     -73.050416     -73.050416      1.4032451    
    260000   782.83314     -71.645312     -73.06196      -73.06196       1.4166477    
    261000   782.17267     -71.623975     -73.039427     -73.039427      1.4154525    
    262000   789.75297     -71.604825     -73.033995     -73.033995      1.4291702    
    263000   793.20291     -71.572821     -73.008234     -73.008234      1.4354133    
    264000   790.32818     -71.581528     -73.011739     -73.011739      1.4302111    
    265000   800.50802     -71.566513     -73.015146     -73.015146      1.448633     
    266000   801.3869      -71.606648     -73.056871     -73.056871      1.4502234    
    267000   798.43219     -71.56168      -73.006556     -73.006556      1.4448764    
    268000   806.07028     -71.553203     -73.011901     -73.011901      1.4586987    
    269000   809.96322     -71.586273     -73.052016     -73.052016      1.4657435    
    270000   811.02207     -71.507162     -72.974821     -72.974821      1.4676596    
    271000   816.65757     -71.556827     -73.034685     -73.034685      1.4778579    
    272000   813.89947     -71.594032     -73.066898     -73.066898      1.4728667    
    273000   821.0665      -71.582928     -73.068765     -73.068765      1.4858364    
    274000   819.83898     -71.519155     -73.00277      -73.00277       1.4836151    
    275000   823.28286     -71.528532     -73.018379     -73.018379      1.4898473    
    276000   822.89812     -71.585553     -73.074704     -73.074704      1.489151     
    277000   832.46058     -71.533755     -73.04021      -73.04021       1.5064557    
    278000   828.54775     -71.51803      -73.017405     -73.017405      1.4993748    
    279000   833.27131     -71.572441     -73.080364     -73.080364      1.5079228    
    280000   837.77066     -71.531306     -73.047371     -73.047371      1.516065     
    281000   839.60892     -71.531065     -73.050456     -73.050456      1.5193916    
    282000   846.773       -71.548357     -73.080713     -73.080713      1.532356     
    283000   850.78748     -71.54096      -73.080581     -73.080581      1.5396208    
    284000   849.01251     -71.522329     -73.058738     -73.058738      1.5364087    
    285000   855.78993     -71.514129     -73.062802     -73.062802      1.5486734    
    286000   859.46451     -71.498615     -73.053938     -73.053938      1.5553231    
    287000   861.44396     -71.453896     -73.012801     -73.012801      1.5589052    
    288000   864.83904     -71.525496     -73.090545     -73.090545      1.5650491    
    289000   866.35464     -71.534204     -73.101996     -73.101996      1.5677918    
    290000   873.32208     -71.479124     -73.059524     -73.059524      1.5804003    
    291000   877.97914     -71.458309     -73.047137     -73.047137      1.5888279    
    292000   875.9    
 293000000   893.39731     -30.185193     -30.762597     -30.762597      0.57740333   
 294000000   909.95408     -30.294001     -30.882105     -30.882105      0.58810398   
 295000000   957.96724     -29.806694     -30.425829     -30.425829      0.61913492   
 296000000   906.90983     -30.17136      -30.757496     -30.757496      0.58613648   
 297000000   921.16994     -30.171311     -30.766663     -30.766663      0.5953528    
 298000000   897.46112     -29.743113     -30.323142     -30.323142      0.58002977   
 299000000   872.57213     -30.226983     -30.790927     -30.790927      0.563944     
 300000000   860.52383     -30.38375      -30.939907     -30.939907      0.55615717   
 301000000   883.4463      -30.669087     -31.240059     -31.240059      0.57097199   
 302000000   899.9184      -30.405951     -30.987569     -30.987569      0.58161791   
 303000000   827.26548     -30.050557     -30.58522      -30.58522       0.53466228   
 304000000   891.63404     -30.238687     -30.814951     -30.814951      0.57626373   
 305000000   1022.5591     -29.94425      -30.605131     -30.605131      0.66088071   
 306000000   909.9752      -30.416375     -31.004492     -31.004492      0.58811763   
 307000000   912.07475     -30.004908     -30.594382     -30.594382      0.58947457   
 308000000   944.55311     -30.333438     -30.943903     -30.943903      0.61046536   
 309000000   934.84725     -30.115666     -30.719858     -30.719858      0.60419246   
 310000000   938.05809     -30.350463     -30.956731     -30.956731      0.60626763   
 311000000   896.29698     -30.205846     -30.785124     -30.785124      0.57927739   
 312000000   926.01803     -30.025507     -30.623993     -30.623993      0.59848613   
 313000000   883.87849     -30.2531       -30.824351     -30.824351      0.57125131   
 314000000   879.26195     -30.281142     -30.84941      -30.84941       0.56826763   
 315000000   963.11402     -29.693416     -30.315877     -30.315877      0.62246129   
 316000000   868.44089     -30.070486     -30.63176      -30.63176       0.56127398   
 317000000   935.22675     -30.152445     -30.756883     -30.756883      0.60443773   
 318000000   919.71054     -30.344179     -30.938588     -30.938588      0.59440959   
 319000000   1006.7513     -29.950232     -30.600896     -30.600896      0.65066409   
 320000000   909.73658     -30.112196     -30.700159     -30.700159      0.58796341   
 321000000   988.75814     -30.213767     -30.852802     -30.852802      0.63903511   
 322000000   919.1119      -29.936369     -30.530392     -30.530392      0.59402269   
 323000000   976.2155      -30.130148     -30.761076     -30.761076      0.63092878   
 324000000   932.49799     -30.280121     -30.882795     -30.882795      0.60267412   
 325000000   935.08121     -29.930587     -30.53493      -30.53493       0.60434367   
 326000000   988.38725     -29.76501      -30.403805     -30.403805      0.63879539   
 327000000   941.87625     -30.16686      -30.775595     -30.775595      0.6087353    
 328000000   985.84576     -30.074017     -30.71117      -30.71117       0.63715283   
 329000000   1044.9933     -29.863566     -30.538946     -30.538946      0.67537996   
 330000000   1009.749      -30.162571     -30.815172     -30.815172      0.65260154   
 331000000   998.2105      -30.00468      -30.649824     -30.649824      0.64514417   
 332000000   960.7977      -30.184943     -30.805908     -30.805908      0.62096425   
 333000000   996.32119     -29.66696      -30.310884     -30.310884      0.64392311   
 334000000   1011.0309     -30.213615     -30.867045     -30.867045      0.65342999   
 335000000   917.79364     -29.536484     -30.129655     -30.129655      0.5931707    
 336000000   995.05489     -30.072257     -30.715362     -30.715362      0.6431047    
 337000000   1102.3161     -29.765703     -30.47813      -30.47813       0.71242772   
 338000000   1017.0603     -29.838085     -30.495412     -30.495412      0.65732681   
 339000000   978.49166     -30.097984     -30.730384     -30.730384      0.63239987   
 340000000   996.25778     -29.739622     -30.383505     -30.383505      0.64388212   
 341000000   988.91885     -30.242062     -30.881201     -30.881201      0.63913897   
 342000000   984.49144     -29.426421     -30.062698     -30.062698      0.63627753   
 343000000   1044.3825     -29.935943     -30.610928     -30.610928      0.67498517   
 344000000   1063.3331     -30.085749     -30.772982     -30.772982      0.68723294   
 345000000   1013.8322     -30.253817     -30.909058     -30.909058      0.65524048   
 346000000   1004.2205     -29.911051     -30.560079     -30.560079      0.6490284    
 347000000   1055.8422     -30.277899     -30.96029      -30.96029       0.6823916    
 348000000   896.88515     -29.409909     -29.989566     -29.989566      0.57965752   
 349000000   999.78551     -30.142706     -30.788868     -30.788868      0.6461621    
 350000000   1069.3374     -30.140198     -30.831312     -30.831312      0.69111353   
 351000000   1093.1227     -29.381194     -30.08768      -30.08768       0.70648598   
 352000000   1102.4063     -30.112055     -30.824541     -30.824541      0.71248601   
 353000000   1075.7216     -30.250936     -30.946175     -30.946175      0.69523966   
 354000000   1046.9308     -29.975476     -30.652108     -30.652108      0.67663212   
 355000000   1134.2532     -29.60202      -30.335089     -30.335089      0.73306869   
 356000000   1044.2018     -30.06702      -30.741888     -30.741888      0.67486839   
 357000000   1070.8841     -30.158155     -30.850268     -30.850268      0.69211318   
 358000000   1090.2878     -30.126196     -30.83085      -30.83085       0.70465378   
 359000000   1138.561      -30.097343     -30.833196     -30.833196      0.73585279   
 360000000   1070.4165     -30.090709     -30.78252      -30.78252       0.69181097   
 361000000   1162.3008     -29.678275     -30.429471     -30.429471      0.75119582   
 362000000   1127.6488     -29.819434     -30.548234     -30.548234      0.72880026   
 363000000   1079.3092     -29.96858      -30.666138     -30.666138      0.69755833   
 364000000   1029.8084     -29.816826     -30.482392     -30.482392      0.6655659    
 365000000   1034.4609     -29.741728     -30.410301     -30.410301      0.66857283   
 366000000   1116.0888     -30.365019     -31.086348     -31.086348      0.72132897   
 367000000   1048.5413     -29.884354     -30.562027     -30.562027      0.67767299   
 368000000   1101.8843     -30.290496     -31.002645     -31.002645      0.71214864   
 369000000   1132.1985     -30.126799     -30.858539     -30.858539      0.73174073   
 370000000   1133.9663     -29.998955     -30.731839     -30.731839      0.73288326   
 371000000   1169.2837     -29.976759     -30.732468     -30.732468      0.75570892   
 372000000   1075.3442     -29.995813     -30.690809     -30.690809      0.69499575   
 373000000   1153.485      -29.662957     -30.408455     -30.408455      0.74549816   
 374000000   1185.1107     -29.421424     -30.187362     -30.187362      0.76593789   
 375000000   1139.2654     -29.379685     -30.115993     -30.115993      0.73630803   
 376000000   1089.5391     -29.540652     -30.244822     -30.244822      0.70416993   
 377000000   1152.2247     -30.103892     -30.848575     -30.848575      0.74468364   
 378000000   1192.7369     -29.918018     -30.688884     -30.688884      0.77086671   
 379000000   1126.0926     -29.336309     -30.064103     -30.064103      0.72779444   
 380000000   1125.2573     -29.98817      -30.715424     -30.715424      0.72725462   
 381000000   1214.6948     -29.76226      -30.547318     -30.547318      0.78505816   
 382000000   1055.016      -29.573603     -30.25546      -30.25546       0.68185759   
 383000000   1085.6364     -29.832992     -30.53464      -30.53464       0.70164756   
 384000000   1186.5406     -29.991244     -30.758107     -30.758107      0.76686207   
 385000000   1160.2159     -30.154644     -30.904492     -30.904492      0.74984837   
 386000000   1147.6567     -29.900712     -30.642443     -30.642443      0.74173134   
 387000000   1205.6476     -29.611479     -30.39069      -30.39069       0.77921091   
 388000000   1097.9167     -29.877309     -30.586893     -30.586893      0.70958437   
 389000000   1128.8414     -29.502838     -30.232409     -30.232409      0.72957103   
 390000000   1157.7032     -29.954218     -30.702442     -30.702442      0.74822439   
 391000000   1156.5151     -29.914667     -30.662123     -30.662123      0.74745655   
 392000000   1108.6071     -29.172392     -29.888886     -29.888886      0.71649356   
 393000000   1149.8977     -30.065718     -30.808898     -30.808898      0.7431797    
 394000000   1213.3019     -29.832768     -30.616926     -30.616926      0.78415787   
 395000000   1214.3633     -29.711491     -30.496335     -30.496335      0.78484389   
 396000000   1192.8092     -29.862825     -30.633739     -30.633739      0.77091343   
 397000000   1109.5877     -29.27405      -29.991178     -29.991178      0.7171273    
 398000000   1174.2491     -29.949204     -30.708122     -30.708122      0.75891806   
 399000000   1288.7679     -29.631926     -30.464858     -30.464858      0.83293164   
 400000000   1166.5095     -30.184664     -30.93858      -30.93858       0.75391595   
 401000000   1203.9499     -29.933382     -30.711495     -30.711495      0.77811371   
 402000000   1088.4688     -29.519257     -30.222735     -30.222735      0.7034782    
 403000000   1212.2084     -30.040991     -30.824443     -30.824443      0.78345118   
 404000000   1258.1141     -29.878498     -30.691618     -30.691618      0.81312006   
 405000000   1234.4108     -29.77537      -30.57317      -30.57317       0.79780059   
 406000000   1203.2887     -29.875089     -30.652775     -30.652775      0.77768635   
 407000000   1212.4555     -29.86222      -30.645831     -30.645831      0.78361089   
 408000000   1169.0118     -29.585149     -30.340682     -30.340682      0.75553315   
 409000000   1260.2778     -29.474472     -30.288991     -30.288991      0.81451848   
 410000000   1245.549      -29.592585     -30.397584     -30.397584      0.80499924   
 411000000   1194.885      -29.384126     -30.156381     -30.156381      0.77225506   
 412000000   1167.3541     -29.666638     -30.4211       -30.4211        0.75446179   
 413000000   1179.2176     -30.026256     -30.788385     -30.788385      0.76212918   
 414000000   1164.9142     -29.806174     -30.559059     -30.559059      0.75288491   
 415000000   1269.5248     -30.243401     -31.063896     -31.063896      0.82049478   
 416000000   1208.1812     -29.394888     -30.175737     -30.175737      0.78084838   
 417000000   1226.7012     -29.635166     -30.427984     -30.427984      0.79281786   
 418000000   1303.7034     -29.551098     -30.393682     -30.393682      0.84258442   
 419000000   1346.5801     -29.369646     -30.239942     -30.239942      0.87029572   
 420000000   1301.4102     -30.197202     -31.038304     -31.038304      0.84110237   
 421000000   1257.6909     -29.589141     -30.401988     -30.401988      0.81284653   
 422000000   1224.8271     -29.69041      -30.482017     -30.482017      0.79160664   
 423000000   1305.9829     -29.841092     -30.68515      -30.68515       0.8440577    
 424000000   1335.3541     -29.667604     -30.530644     -30.530644      0.86304031   
 425000000   1280.935      -29.972389     -30.800258     -30.800258      0.82786923   
 426000000   1321.836      -30.010089     -30.864392     -30.864392      0.85430359   
 427000000   1343.3817     -29.658551     -30.52678      -30.52678       0.86822857   
 428000000   1297.4895     -29.440325     -30.278894     -30.278894      0.83856838   
 429000000   1234.6436     -29.030665     -29.828616     -29.828616      0.79795104   
 430000000   1231.0369     -29.475227     -30.270847     -30.270847      0.79562004   
 431000000   1290.9249     -29.77006      -30.604386     -30.604386      0.83432571   
 432000000   1324.9631     -29.738887     -30.595211     -30.595211      0.85632458   
 433000000   1220.6074     -29.655472     -30.444351     -30.444351      0.78887942   
 434000000   1289.0034     -29.280268     -30.113351     -30.113351      0.83308383   
 435000000   1252.7696     -29.16991      -29.979576     -29.979576      0.80966588   
 436000000   1343.4005     -29.679628     -30.547869     -30.547869      0.8682407    
 437000000   1350.322      -29.677366     -30.55008      -30.55008       0.87271406   
 438000000   1307.2779     -29.929174     -30.774068     -30.774068      0.84489464   
 439000000   1221.4336     -29.651328     -30.440741     -30.440741      0.78941342   
 440000000   1369.243      -29.428629     -30.313572     -30.313572      0.88494272   
 441000000   1306.2706     -29.90574      -30.749983     -30.749983      0.84424361   
 442000000   1344.4865     -29.755804     -30.624747     -30.624747      0.8689426    
 443000000   1331.6632     -29.690057     -30.550711     -30.550711      0.8606549    
 444000000   1416.8991     -29.30447      -30.220213     -30.220213      0.9157429    
 445000000   1290.6667     -29.509394     -30.343553     -30.343553      0.83415885   
 446000000   1406.4969     -29.782052     -30.691072     -30.691072      0.90901999   
 447000000   1372.9009     -29.782081     -30.669388     -30.669388      0.88730685   
 448000000   1260.5955     -29.002249     -29.816973     -29.816973      0.81472379   
 449000000   1347.7042     -29.060301     -29.931324     -29.931324      0.87102223   
 450000000   1457.1828     -29.612494     -30.554273     -30.554273      0.94177833   
 451000000   1335.0209     -29.886771     -30.749596     -30.749596      0.86282498   
 452000000   1397.3283     -29.578104     -30.481198     -30.481198      0.90309429   
 453000000   1405.7122     -29.536048     -30.444561     -30.444561      0.90851284   
 454000000   1293.0207     -29.449898     -30.285578     -30.285578      0.83568021   
 455000000   1224.3846     -28.845768     -29.637089     -29.637089      0.79132065   
 456000000   1414.1448     -29.569836     -30.483799     -30.483799      0.91396281   
 457000000   1361.7693     -29.976597     -30.85671      -30.85671       0.88011247   
 458000000   1420.8486     -29.399421     -30.317717     -30.317717      0.91829545   
 459000000   1399.1104     -29.831066     -30.735312     -30.735312      0.90424609   
 460000000   1404.2012     -29.775528     -30.683065     -30.683065      0.90753626   
 461000000   1356.3472     -29.892614     -30.769222     -30.769222      0.8766082    
 462000000   1330.8846     -29.343078     -30.203229     -30.203229      0.86015166   
 463000000   1475.7417     -29.672493     -30.626266     -30.626266      0.9537729    
 464000000   1422.2418     -29.761394     -30.68059      -30.68059       0.91919592   
 465000000   1401.8361     -29.478713     -30.384721     -30.384721      0.9060077    
 466000000   1409.9178     -29.95052      -30.86175      -30.86175       0.91123089   
 467000000   1300.6371     -29.419006     -30.259609     -30.259609      0.84060267   
 468000000   1337.1483     -29.606046     -30.470246     -30.470246      0.86419992   
 469000000   1363.6711     -29.530759     -30.412101     -30.412101      0.8813416    
 470000000   1334.0372     -29.3073       -30.169489     -30.169489      0.8621892    
 471000000   1386.172      -29.898028     -30.793912     -30.793912      0.89588398   
 472000000   1417.7987     -28.983135     -29.89946      -29.89946       0.91632436   
 473000000   1388.2988     -29.427517     -30.324776     -30.324776      0.89725855   
 474000000   1467.0971     -29.704567     -30.652753     -30.652753      0.94818592   
 475000000   1396.7315     -29.599266     -30.501974     -30.501974      0.90270858   
 476000000   1390.8708     -29.311277     -30.210198     -30.210198      0.89892081   
 477000000   1274.833      -29.159637     -29.983562     -29.983562      0.82392551   
 478000000   1496.8899     -29.193696     -30.161137     -30.161137      0.967441     
 479000000   1375.3133     -29.202363     -30.091229     -30.091229      0.88886599   
 480000000   1456.001      -29.87312      -30.814134     -30.814134      0.94101452   
 481000000   1490.4062     -29.298904     -30.262155     -30.262155      0.9632506    
 482000000   1392.5369     -29.466065     -30.366063     -30.366063      0.89999759   
 483000000   1450.8341     -29.633793     -30.571468     -30.571468      0.93767515   
 484000000   1472.7007     -29.459706     -30.411514     -30.411514      0.95180754   
 485000000   1458.7678     -29.593364     -30.536167     -30.536167      0.94280267   
 486000000   1477.2315     -29.739161     -30.693896     -30.693896      0.95473576   
 487000000   1537.3439     -29.60082      -30.594406     -30.594406      0.99358647   
 488000000   1479.1352     -29.100479     -30.056446     -30.056446      0.95596616   
 489000000   1488.1417     -28.72782      -29.689607     -29.689607      0.96178704   
 490000000   1434.3822     -29.61053      -30.537572     -30.537572      0.92704227   
 491000000   1466.488      -29.58329      -30.531082     -30.531082      0.94779229   
 492000000   1501.3512     -29.624926     -30.59525      -30.59525       0.97032434   
 493000000   1525.7804     -29.320673     -30.306786     -30.306786      0.98611295   
 494000000   1586.3511     -29.551975     -30.577235     -30.577235      1.0252599    
 495000000   1496.6541     -29.337902     -30.305191     -30.305191      0.96728865   
 496000000   1514.9561     -29.451589     -30.430707     -30.430707      0.97911723   
 497000000   1425.4908     -29.206673     -30.127969     -30.127969      0.92129573   
 498000000   1437.3576     -29.425377     -30.354343     -30.354343      0.92896528   
 499000000   1570.3006     -29.908128     -30.923014     -30.923014      1.0148864    
 500000000   1582.1465     -29.286017     -30.308559     -30.308559      1.0225424    
 501000000   1547.1823     -29.368292     -30.368237     -30.368237      0.99994502   
 502000000   1513.0026     -29.965539     -30.943393     -30.943393      0.97785465   
 503000000   1617.0823     -29.188263     -30.233384     -30.233384      1.0451214    
 504000000   1534.7659     -29.431812     -30.423732     -30.423732      0.99192029   
 505000000   1509.805      -29.413607     -30.389395     -30.389395      0.97578808   
 506000000   1520.3585     -29.678482     -30.66109      -30.66109       0.9826088    
 507000000   1515.1657     -29.587106     -30.566358     -30.566358      0.97925268   
 508000000   1498.1749     -29.545244     -30.513515     -30.513515      0.96827155   
 509000000   1538.2992     -29.201102     -30.195305     -30.195305      0.99420392   
 510000000   1566.2159     -29.727444     -30.739691     -30.739691      1.0122465    
 511000000   1546.1423     -29.488243     -30.487516     -30.487516      0.9992729    
 512000000   1531.3009     -29.281337     -30.271018     -30.271018      0.98968091   
 513000000   1556.0197     -28.672132     -29.677789     -29.677789      1.0056567    
 514000000   1495.5358     -29.300209     -30.266775     -30.266775      0.96656585   
 515000000   1596.3726     -29.447388     -30.479124     -30.479124      1.0317368    
 516000000   1591.5402     -29.554606     -30.58322      -30.58322       1.0286136    
 517000000   1592.0093     -29.471951     -30.500868     -30.500868      1.0289168    
 518000000   1554.8366     -29.29076      -30.295652     -30.295652      1.004892     
 519000000   1595.0504     -29.579799     -30.610681     -30.610681      1.0308823    
 520000000   1573.6963     -28.648008     -29.665089     -29.665089      1.0170811    
 521000000   1665.3865     -28.623842     -29.700182     -29.700182      1.0763405    
 522000000   1577.8085     -29.691988     -30.711727     -30.711727      1.0197388    
 523000000   1656.4095     -29.404757     -30.475296     -30.475296      1.0705387    
 524000000   1581.404      -29.380671     -30.402733     -30.402733      1.0220625    
 525000000   1610.2669     -29.078627     -30.119344     -30.119344      1.0407167    
 526000000   1662.5383     -29.005775     -30.080274     -30.080274      1.0744997    
 527000000   1584.5861     -29.485924     -30.510043     -30.510043      1.0241192    
 528000000   1629.2155     -29.30258      -30.355543     -30.355543      1.0529632    
 529000000   1532.6155     -29.088246     -30.078777     -30.078777      0.99053051   
 530000000   1607.8034     -29.012243     -30.051368     -30.051368      1.0391245    
 531000000   1584.2167     -29.387228     -30.411109     -30.411109      1.0238804    
 532000000   1577.3664     -28.889057     -29.90851      -29.90851       1.0194531    
 533000000   1599.5412     -29.227336     -30.261121     -30.261121      1.0337846    
 534000000   1598.9774     -28.98919      -30.02261      -30.02261       1.0334202    
 535000000   1536.8938     -29.212651     -30.205947     -30.205947      0.99329558   
 536000000   1631.629      -29.329712     -30.384235     -30.384235      1.054523     
 537000000   1632.5016     -29.408741     -30.463828     -30.463828      1.055087     
 538000000   1655.6004     -29.281654     -30.351669     -30.351669      1.0700157    
 539000000   1529.5995     -29.066867     -30.055449     -30.055449      0.98858125   
 540000000   1604.4709     -28.735249     -29.772219     -29.772219      1.0369707    
 541000000   1677.6052     -29.586475     -30.670713     -30.670713      1.0842375    
 542000000   1455.2411     -29.1819       -30.122423     -30.122423      0.94052337   
 543000000   1779.467      -29.261921     -30.411992     -30.411992      1.1500708    
 544000000   1802.1135     -29.343913     -30.50862      -30.50862       1.1647073    
 545000000   1618.0574     -29.334497     -30.380248     -30.380248      1.0457517    
 546000000   1600.3751     -29.175004     -30.209328     -30.209328      1.0343236    
 547000000   1633.4947     -29.391221     -30.44695      -30.44695       1.0557288    
 548000000   1691.8826     -29.481184     -30.574649     -30.574649      1.0934649    
 549000000   1694.806      -29.428149     -30.523504     -30.523504      1.0953543    
 550000000   1540.3654     -29.402339     -30.397879     -30.397879      0.99553928   
 551000000   1729.9262     -29.499937     -30.61799      -30.61799       1.1 1651.3632     -75.633578     -78.621954     -78.621954      2.9883762    
    552000   1664.8483     -75.855207     -78.867986     -78.867986      3.0127795    
    553000   1675.3708     -75.725098     -78.756919     -78.756919      3.0318215    
    554000   1664.3025     -75.649918     -78.66171      -78.66171       3.0117917    
    555000   1676.6863     -75.523286     -78.557488     -78.557488      3.034202     
    556000   1671.7812     -75.745391     -78.770717     -78.770717      3.0253255    
    557000   1667.1722     -75.651506     -78.66849      -78.66849       3.0169848    
    558000   1679.6909     -75.830567     -78.870206     -78.870206      3.0396392    
    559000   1689.0441     -75.775325     -78.83189      -78.83189       3.0565651    
    560000   1684.9118     -75.602046     -78.651133     -78.651133      3.0490873    
    561000   1689.2077     -75.638948     -78.695809     -78.695809      3.0568612    
    562000   1691.3241     -75.715266     -78.775958     -78.775958      3.0606911    
    563000   1687.2816     -75.647957     -78.701333     -78.701333      3.0533757    
    564000   1679.8998     -75.58367      -78.623687     -78.623687      3.0400172    
    565000   1683.806      -75.577745     -78.624831     -78.624831      3.0470862    
    566000   1698.155      -75.481985     -78.555038     -78.555038      3.0730527    
    567000   1708.6938     -75.701873     -78.793997     -78.793997      3.0921241    
    568000   1707.0689     -75.460496     -78.549679     -78.549679      3.0891836    
    569000   1705.8125     -75.387698     -78.474608     -78.474608      3.0869099    
    570000   1720.2204     -75.543348     -78.656331     -78.656331      3.1129831    
    571000   1720.7965     -75.594572     -78.708598     -78.708598      3.1140256    
    572000   1712.1843     -75.536918     -78.635359     -78.635359      3.0984407    
    573000   1710.9565     -75.625547     -78.721766     -78.721766      3.0962188    
    574000   1719.3741     -75.562602     -78.674054     -78.674054      3.1114517    
    575000   1722.5308     -75.686108     -78.803272     -78.803272      3.1171642    
    576000   1742.6893     -75.726219     -78.879863     -78.879863      3.1536438    
    577000   1738.2269     -75.61674      -78.762308     -78.762308      3.1455685    
    578000   1730.504      -75.628895     -78.760488     -78.760488      3.1315928    
    579000   1732.1609     -75.41594      -78.550531     -78.550531      3.1345911    
    580000   1737.5517     -75.483451     -78.627798     -78.627798      3.1443467    
    581000   1731.0866     -75.50941      -78.642057     -78.642057      3.132647     
    582000   1749.0808     -75.51616      -78.68137      -78.68137       3.1652101    
    583000   1742.4924     -75.505827     -78.659114     -78.659114      3.1532874    
    584000   1767.1295     -75.451514     -78.649386     -78.649386      3.1978718    
    585000   1761.5323     -75.716604     -78.904346     -78.904346      3.1877428    
    586000   1760.2144     -75.545528     -78.730886     -78.730886      3.1853579    
    587000   1755.5409     -75.446932     -78.623833     -78.623833      3.1769007    
    588000   1759.7653     -75.581873     -78.766418     -78.766418      3.1845452    
    589000   1760.9521     -75.445291     -78.631984     -78.631984      3.186693     
    590000   1771.0733     -75.675507     -78.880515     -78.880515      3.2050086    
    591000   1790.799      -75.471067     -78.711773     -78.711773      3.2407051    
    592000   1795.4237     -75.584145     -78.83322      -78.83322       3.2490742    
    593000   1797.2226     -75.487952     -78.740282     -78.740282      3.2523296    
    594000   1797.761      -75.527327     -78.780631     -78.780631      3.2533039    
    595000   1781.8604     -75.50667      -78.731199     -78.731199      3.2245296    
    596000   1777.3956     -75.445959     -78.662409     -78.662409      3.2164498    
    597000   1785.9694     -75.392484     -78.62445      -78.62445       3.2319653    
    598000   1791.2154     -75.423885     -78.665344     -78.665344      3.2414586    
    599000   1798.1715     -75.416966     -78.671013     -78.671013      3.2540467    
    600000   1804.8408     -75.430869     -78.696984     -78.696984      3.2661158    
    601000   1812.1734     -75.333448     -78.612833     -78.612833      3.2793852    
    602000   1810.0708     -75.55979      -78.83537      -78.83537       3.2755801    
    603000   1814.7579     -75.547317     -78.831379     -78.831379      3.2840622    
    604000   1813.3407     -75.374143     -78.655641     -78.655641      3.2814975    
    605000   1820.1744     -75.53147      -78.825334     -78.825334      3.2938641    
    606000   1817.6842     -75.450631     -78.739988     -78.739988      3.2893578    
    607000   1824.5539     -75.431337     -78.733127     -78.733127      3.3017895    
    608000   1820.3917     -75.434688     -78.728946     -78.728946      3.2942573    
    609000   1813.7971     -75.33328      -78.615603     -78.615603      3.2823234    
    610000   1829.9813     -75.441342     -78.752953     -78.752953      3.311611     
    611000   1836.1975     -75.38241      -78.70527      -78.70527       3.3228601    
    612000   1836.2064     -75.45081      -78.773687     -78.773687      3.3228763    
    613000   1849.9826     -75.464398     -78.812204     -78.812204      3.3478062    
    614000   1851.3861     -75.552565     -78.902911     -78.902911      3.3503462    
    615000   1824.9805     -75.484037     -78.786598     -78.786598      3.3025614    
    616000   1837.1838     -75.400098     -78.724743     -78.724743      3.3246451    
    617000   1850.3725     -75.489675     -78.838187     -78.838187      3.3485118    
    618000   1857.064      -75.282194     -78.642815     -78.642815      3.3606211    
    619000   1855.9836     -75.436795     -78.795461     -78.795461      3.358666     
    620000   1853.869      -75.576203     -78.931042     -78.931042      3.3548393    
    621000   1853.2361     -75.586185     -78.939878     -78.939878      3.3536939    
    622000   1860.8516     -75.380528     -78.748003     -78.748003      3.3674754    
    623000   1869.5088     -75.503023     -78.886165     -78.886165      3.3831416    
    624000   1868.086      -75.4137       -78.794267     -78.794267      3.380567     
    625000   1891.8999     -75.540322     -78.963984     -78.963984      3.4236616    
    626000   1880.5958     -75.35942      -78.762626     -78.762626      3.4032051    
    627000   1883.1469     -75.471049     -78.878871     -78.878871      3.4078217    
    628000   1786.1856     -76.951882     -80.184238     -80.184238      3.2323565    
    629000   1844.8049     -78.067451     -81.405887     -81.405887      3.3384366    
    630000   1820.3464     -77.397984     -80.692159     -80.692159      3.2941753    
    631000   1910.8383     -76.8703       -80.328234     -80.328234      3.4579332    
    632000   1877.956      -78.185846     -81.584275     -81.584275      3.3984281    
    633000   1836.8806     -78.781672     -82.105768     -82.105768      3.3240963    
    634000   1937.7947     -79.180555     -82.687269     -82.687269      3.5067147    
    635000   1936.7979     -78.34668      -81.85159      -81.85159       3.5049108    
    636000   1909.5706     -79.107612     -82.563252     -82.563252      3.4556392    
    637000   1903.686      -78.67847      -82.123461     -82.123461      3.4449903    
    638000   1973.77       -78.578862     -82.150679     -82.150679      3.5718171    
    639000   1843.0417     -78.458984     -81.794229     -81.794229      3.3352458    
    640000   1892.6445     -76.701473     -80.126482     -80.126482      3.4250091    
    641000   1938.9931     -78.400971     -81.909855     -81.909855      3.5088835    
    642000   1916.6805     -79.225032     -82.693538     -82.693538      3.4685055    
    643000   1909.2527     -79.26594      -82.721004     -82.721004      3.4550639    
    644000   1880.3155     -78.826924     -82.229622     -82.229622      3.4026979    
    645000   1908.8807     -79.227041     -82.681432     -82.681432      3.4543908    
    646000   1927.9807     -79.194148     -82.683103     -82.683103      3.488955     
    647000   1947.7876     -79.651205     -83.176003     -83.176003      3.5247984    
    648000   1949.288      -78.76242      -82.289933     -82.289933      3.5275135    
    649000   1958.1438     -78.479598     -82.023137     -82.023137      3.5435393    
    650000   1968.4579     -77.549883     -81.112087     -81.112087      3.5622041    
    651000   1962.0874     -77.959573     -81.510249     -81.510249      3.5506757    
    652000   1945.4069     -79.032603     -82.553093     -82.553093      3.52049      
    653000   1933.9952     -77.953944     -81.453784     -81.453784      3.4998391    
    654000   1954.3101     -78.910735     -82.447337     -82.447337      3.5366016    
    655000   1983.2394     -78.048798     -81.637751     -81.637751      3.5889534    
    656000   1966.4606     -77.82403      -81.382619     -81.382619      3.5585897    
    657000   1936.8337     -78.449056     -81.954031     -81.954031      3.5049757    
    658000   1893.6282     -76.929767     -80.356556     -80.356556      3.4267891    
    659000   1925.8703     -76.323251     -79.808387     -79.808387      3.4851358    
    660000   1978.0157     -76.623502     -80.203003     -80.203003      3.5795003    
    661000   2003.7809     -77.449745     -81.075871     -81.075871      3.6261261    
    662000   2036.3785     -77.718512     -81.403629     -81.403629      3.6851162    
    663000   2059.8604     -77.334781     -81.062391     -81.062391      3.72761      
    664000   1978.3647     -76.535953     -80.116085     -80.116085      3.580132     
    665000   1978.7769     -77.501        -81.081878     -81.081878      3.5808779    
    666000   1996.2582     -78.227378     -81.83989      -81.83989       3.6125128    
    667000   2063.5074     -77.944993     -81.679203     -81.679203      3.7342097    
    668000   1987.6875     -76.821854     -80.418857     -80.418857      3.5970029    
    669000   2048.2631     -77.979642     -81.686265     -81.686265      3.706623     
    670000   1979.1469     -78.068105     -81.649652     -81.649652      3.5815473    
    671000   1989.3283     -77.235652     -80.835624     -80.835624      3.5999721    
    672000   2024.372      -76.731668     -80.395056     -80.395056      3.6633887    
    673000   1996.237      -77.276481     -80.888955     -80.888955      3.6124743    
    674000   2072.2948     -77.69458      -81.444692     -81.444692      3.7501117    
    675000   2038.9355     -77.088854     -80.778597     -80.778597      3.6897433    
    676000   1951.16       -77.387261     -80.918162     -80.918162      3.5309011    
    677000   2087.144      -77.95448      -81.731463     -81.731463      3.7769834    
    678000   2096.4355     -76.436282     -80.230079     -80.230079      3.7937978    
    679000   2043.6135     -77.721503     -81.419712     -81.419712      3.6982089    
    680000   2065.3963     -77.982809     -81.720437     -81.720437      3.7376279    
    681000   2047.7247     -77.58592      -81.291569     -81.291569      3.7056487    
    682000   2148.8824     -77.113015     -81.001723     -81.001723      3.8887079    
    683000   2050.8036     -78.202092     -81.913312     -81.913312      3.7112204    
    684000   2084.6465     -77.075846     -80.84831      -80.84831       3.7724639    
    685000   1983.7449     -76.140551     -79.730419     -79.730419      3.5898681    
    686000   1972.9485     -77.843565     -81.413896     -81.413896      3.5703305    
    687000   2042.9099     -77.427691     -81.124627     -81.124627      3.6969356    
    688000   2127.8208     -76.690261     -80.540855     -80.540855      3.8505939    
    689000   2052.4809     -77.191464     -80.90572      -80.90572       3.7142557    
    690000   2072.5946     -78.367175     -82.11783      -82.11783       3.7506542    
    691000   2141.2299     -76.422454     -80.297314     -80.297314      3.8748597    
    692000   2061.9355     -77.176349     -80.907714     -80.907714      3.7313651    
    693000   2122.8565     -78.065138     -81.906748     -81.906748      3.8416104    
    694000   2021.2515     -77.191576     -80.849318     -80.849318      3.6577417    
    695000   2057.3261     -77.34853      -81.071553     -81.071553      3.7230238    
    696000   2152.4774     -77.926711     -81.821925     -81.821925      3.8952135    
    697000   2021.1555     -77.395576     -81.053144     -81.053144      3.6575679    
    698000   2028.4558     -77.303044     -80.973823     -80.973823      3.6707788    
    699000   2046.9235     -76.756653     -80.460851     -80.460851      3.7041988    
    700000   2077.4677     -78.507073     -82.266546     -82.266546      3.7594728    
    701000   2165.5012     -78.242064     -82.160846     -82.160846      3.918782     
    702000   2083.6732     -77.435563     -81.206266     -81.206266      3.7707026    
    703000   2013.4103     -77.003601     -80.647153     -80.647153      3.6435519    
    704000   2054.5727     -77.684684     -81.402726     -81.402726      3.7180411    
    705000   2127.0562     -77.731765     -81.580975     -81.580975      3.8492103    
    706000   2111.5897     -77.68424      -81.505461     -81.505461      3.8212214    
    707000   2142.6611     -77.591723     -81.469173     -81.469173      3.8774496    
    708000   2124.6008     -77.317469     -81.162236     -81.162236      3.8447669    
    709000   2123.1077     -77.141386     -80.983451     -80.983451      3.8420649    
    710000   2088.5372     -76.597428     -80.376933     -80.376933      3.7795046    
    711000   2111.7941     -77.263537     -81.085128     -81.085128      3.8215914    
    712000   2164.5586     -78.605628     -82.522705     -82.522705      3.9170761    
    713000   2191.6923     -76.24167      -80.207849     -80.207849      3.9661785    
    714000   2070.1879     -75.501691     -79.24799      -79.24799       3.746299     
    715000   2118.3075     -76.561928     -80.395307     -80.395307      3.8333782    
    716000   2183.3907     -77.305397     -81.256552     -81.256552      3.9511556    
    717000   2120.2198     -75.890588     -79.727427     -79.727427      3.8368389    
    718000   2201.7155     -75.896992     -79.881309     -79.881309      3.9843169    
    719000   2219.2546     -76.71138      -80.727436     -80.727436      4.0160563    
    720000   2129.7035     -77.467855     -81.321856     -81.321856      3.854001     
    721000   2063.6202     -78.133879     -81.868293     -81.868293      3.7344138    
    722000   2148.0202     -77.032116     -80.919264     -80.919264      3.8871476    
    723000   2046.2968     -77.395793     -81.098857     -81.098857      3.7030647    
    724000   2172.6793     -78.36362      -82.295392     -82.295392      3.9317718    
    725000   2274.2923     -77.879592     -81.995247     -81.995247      4.1156549    
    726000   2108.6835     -76.543208     -80.35917      -80.35917       3.8159623    
    727000   2228.7491     -77.07246      -81.105698     -81.105698      4.0332381    
    728000   2237.5062     -77.375593     -81.424679     -81.424679      4.0490852    
    729000   2257.1121     -76.988268     -81.072833     -81.072833      4.084565     
    730000   2122.7089     -77.311617     -81.152961     -81.152961      3.8413433    
    731000   2150.8772     -77.333829     -81.226147     -81.226147      3.8923179    
    732000   2291.8269     -77.715452     -81.862838     -81.862838      4.1473864    
    733000   2247.0292     -77.739671     -81.80599      -81.80599       4.0663184    
    734000   2243.4073     -77.608734     -81.668498     -81.668498      4.0597641    
    735000   2193.0244     -77.622297     -81.590886     -81.590886      3.9685892    
    736000   2198.7941     -77.087202     -81.066232     -81.066232      3.9790302    
    737000   2229.3848     -78.116839     -82.151228     -82.151228      4.0343885    
    738000   2260.9205     -76.273558     -80.365015     -80.365015      4.0914568    
    739000   2206.4875     -74.128875     -78.121827     -78.121827      3.9929526    
    740000   2183.9965     -73.746509     -77.698761     -77.698761      3.9522519    
    741000   2199.5098     -74.862122     -78.842448     -78.842448      3.9803254    
    742000   2214.0544     -76.867147     -80.873793     -80.873793      4.0066458    
    743000   2200.9952     -76.419048     -80.402061     -80.402061      3.9830134    
    744000   2167.8229     -77.201929     -81.124913     -81.124913      3.9229834    
    745000   2189.4836     -77.145028     -81.107209     -81.107209      3.9621816    
    746000   2161.5101     -78.017771     -81.92933      -81.92933       3.9115596    
    747000   2216.0925     -75.381405     -79.391739     -79.391739      4.0103342    
    748000   2189.9915     -76.745231     -80.708331     -80.708331      3.9631006    
    749000   2302.0253     -76.823178     -80.98902      -80.98902       4.1658418    
    750000   2179.0719     -77.179737     -81.123078     -81.123078      3.9433401    
    751000   2276.5184     -76.074596     -80.194279     -80.194279      4.1196833    
    752000   2294.9929     -76.459667     -80.612783     -80.612783      4.1531156    
    753000   2175.1833     -75.748067     -79.68437      -79.68437       3.9363031    
    754000   2239.9506     -74.345744     -78.399253     -78.399253      4.0535087    
    755000   2263.3062     -75.433798     -79.529572     -79.529572      4.0957741    
    756000   2311.5471     -77.571424     -81.754497     -81.754497      4.1830728    
    757000   2308.4289     -76.731761     -80.909191     -80.909191      4.17743      
    758000   2249.6852     -76.92968      -81.000805     -81.000805      4.0711249    
    759000   2228.4508     -76.25388      -80.286578     -80.286578      4.0326983    
    760000   2380.5783     -77.694194     -82.002188     -82.002188      4.3079945    
    761000   2191.3251     -76.440717     -80.406231     -80.406231      3.9655141    
    762000   2291.8419     -75.037311     -79.184725     -79.184725      4.1474134    
    763000   2290.8054     -75.807322     -79.95286      -79.95286       4.1455377    
    764000   2293.5326     -76.490168     -80.640641     -80.640641      4.1504729    
    765000   2362.173      -76.702837     -80.977525     -80.977525      4.2746875    
    766000   2331.9156     -76.804845     -81.024777     -81.024777      4.2199324    
    767000   2397.8428     -75.604219     -79.943457     -79.943457      4.3392371    
    768000   2342.6905     -76.82864      -81.068072     -81.068072      4.2394313    
    769000   2326.5425     -76.666216     -80.876425     -80.876425      4.210209     
    770000   2321.6418     -75.670399     -79.87174      -79.87174       4.2013406    
    771000   2323.4744     -75.298585     -79.503241     -79.503241      4.2046569    
    772000   2352.7044     -75.681765     -79.939317     -79.939317      4.2575528    
    773000   2339.891      -76.634929     -80.869294     -80.869294      4.2343651    
    774000   2276.2414     -75.349892     -79.469074     -79.469074      4.1191821    
    775000   2317.9401     -76.735929     -80.930571     -80.930571      4.1946418    
    776000   2263.3235     -76.286221     -80.382026     -80.382026      4.0958053    
    777000   2347.6206     -76.911107     -81.15946      -81.15946       4.2483529    
    778000   2438.9107     -75.871017     -80.284572     -80.284572      4.4135554    
    779000   2348.4405     -76.569712     -80.819549     -80.819549      4.2498367    
    780000   2282.4983     -74.376025     -78.50653      -78.50653       4.1305048    
    781000   2362.0298     -74.498348     -78.772776     -78.772776      4.2744285    
    782000   2403.9014     -76.253975     -80.604176     -80.604176      4.350201     
    783000   2463.4984     -75.998226     -80.456276     -80.456276      4.4580503    
    784000   2278.82       -75.737156     -79.861004     -79.861004      4.1238485    
    785000   2375.5287     -74.811653     -79.11051      -79.11051       4.2988565    
    786000   2263.9061     -76.550493     -80.647353     -80.647353      4.0968596    
    787000   2356.6423     -77.787132     -82.051811     -82.051811      4.2646789    
    788000   2388.5425     -77.570641     -81.893048     -81.893048      4.3224069    
    789000   2397.526      -76.488527     -80.827191     -80.827191      4.3386638    
    790000   2475.7863     -76.144013     -80.6243       -80.6243        4.4802869    
    791000   2359.2786     -77.57575      -81.845199     -81.845199      4.2694496    
    792000   2388.7686     -76.260716     -80.583532     -80.583532      4.322816     
    793000   2330.8318     -76.074074     -80.292045     -80.292045      4.2179713    
    794000   2355.6637     -76.720438     -80.983346     -80.983346      4.262908     
    795000   2399.3963     -76.378717     -80.720766     -80.720766      4.3420485    
    796000   2402.7532     -77.492883     -81.841006     -81.841006      4.3481232    
    797000   2333.8811     -76.43006      -80.653549     -80.653549      4.2234894    
    798000   2379.1348     -76.957285     -81.262667     -81.262667      4.3053823    
    799000   2360.661      -75.94872      -80.220671     -80.220671      4.2719514    
    800000   2328.2652     -76.456715     -80.670042     -80.670042      4.2133265    
    801000   2321.3032     -72.275282     -76.47601      -76.47601       4.2007279    
    802000   2383.1686     -76.80385      -81.116532     -81.116532      4.3126822    
    803000   2469.1615     -75.893466     -80.361765     -80.361765      4.4682985    
    804000   2355.9854     -75.983701     -80.247191     -80.247191      4.2634903    
    805000   2411.6806     -76.580354     -80.944632     -80.944632      4.3642786    
    806000   2463.3278     -77.473351     -81.931092     -81.931092      4.4577414    
    807000   2420.5752     -76.502749     -80.883124     -80.883124      4.3803747    
    808000   2466.0633     -76.728686     -81.191378     -81.191378      4.4626917    
    809000   2449.3672     -77.416891     -81.849369     -81.849369      4.4324778    
    810000   2468.5363     -75.649187     -80.116355     -80.116355      4.4671671    
    811000   2430.2441     -76.613282     -81.011154     -81.011154      4.3978719    
    812000   2418.1045     -76.766812     -81.142715     -81.142715      4.3759035    
    813000   2471.6985     -76.282129     -80.755019     -80.755019      4.4728895    
    814000   2394.7727     -76.249353     -80.583035     -80.583035      4.3336814    
    815000   2506.9486     -76.864436     -81.401116     -81.401116      4.5366796    
    816000   2469.0044     -77.216477     -81.684491     -81.684491      4.4680141    
    817000   2510.3596     -76.118537     -80.66139      -80.66139       4.5428523    
    818000   2488.364      -75.200907     -79.703955     -79.703955      4.503048     
    819000   2417.3125     -77.412766     -81.787236     -81.787236      4.3744702    
    820000   2440.8536     -75.85469      -80.271761     -80.271761      4.4170712    
    821000   2453.1814     -76.410885     -80.850265     -80.850265      4.4393802    
    822000   2472.4587     -77.354744     -81.829009     -81.829009      4.4742652    
    823000   2396.9723     -75.950276     -80.287938     -80.287938      4.3376619    
    824000   2432.2802     -75.94008      -80.341636     -80.341636      4.4015565    
    825000   2455.8656     -75.408019     -79.852257     -79.852257      4.4442375    
    826000   2463.1389     -75.877316     -80.334715     -80.334715      4.4573997    
    827000   2607.1578     -75.973046     -80.691069     -80.691069      4.7180223    
    828000   2548.3822     -76.13931      -80.750969     -80.750969      4.6116595    
    829000   2491.7718     -77.185476     -81.694691     -81.694691      4.509215     
    830000   2567.0452     -74.543641     -79.189074     -79.189074      4.6454328    
    831000   2432.0707     -75.140142     -79.541319     -79.541319      4.4011773    
    832000   2377.1067     -75.508465     -79.810177     -79.810177      4.3017121    
    833000   2534.5127     -74.76652      -79.35308      -79.35308       4.5865607    
    834000   2465.3908     -75.588138     -80.049613     -80.049613      4.4614747    
    835000   2645.2481     -76.016319     -80.803271     -80.803271      4.7869521    
    836000   2601.8523     -75.548434     -80.256855     -80.256855      4.7084213    
    837000   2439.7674     -75.211873     -79.626979     -79.626979      4.4151057    
    838000   2444.7484     -75.049027     -79.473146     -79.473146      4.4241195    
    839000   2483.9477     -76.125116     -80.620172     -80.620172      4.4950561    
    840000   2484.4864     -75.464113     -79.960144     -79.960144      4.496031     
    841000   2611.7357     -74.936444     -79.662751     -79.662751      4.7263067    
    842000   2677.6656     -73.903445     -78.749061     -78.749061      4.8456163    
    843000   2374.7649     -75.215467     -79.512942     -79.512942      4.2974743    
    844000   2373.7018     -74.506947     -78.802498     -78.802498      4.2955505    
    845000   2622.8522     -74.75241      -79.498834     -79.498834      4.7464236    
    846000   2540.146      -76.332681     -80.929436     -80.929436      4.5967551    
    847000   2412.3097     -73.977014     -78.342431     -78.342431      4.3654169    
    848000   2541.9936     -75.124917     -79.725016     -79.725016      4.6000985    
    849000   2519.5785     -75.034342     -79.593877     -79.593877      4.5595351    
    850000   2548.4731     -75.434088     -80.045912     -80.045912      4.611824     
    851000   2517.545      -75.667798     -80.223654     -80.223654      4.5558553    
    852000   2571.6819     -74.680052     -79.333876     -79.333876      4.6538236    
    853000   2652.4359     -76.014525     -80.814485     -80.814485      4.7999596    
    854000   2597.6823     -76.031415     -80.73229      -80.73229       4.7008751    
    855000   2622.098      -73.976126     -78.721184     -78.721184      4.7450587    
    856000   2686.2205     -74.326997     -79.188094     -79.188094      4.8610975    
    857000   2479.2188     -73.463453     -77.949952     -77.949952      4.4864986    
    858000   2675.4236     -75.148018     -79.989577     -79.989577      4.8415589    
    859000   2576.3919     -74.796176     -79.458523     -79.458523      4.6623471    
    860000   2458.6622     -74.675212     -79.12451      -79.12451       4.4492984    
    861000   2528.1019     -76.532945     -81.107904     -81.107904      4.5749595    
    862000   2567.1282     -75.200453     -79.846036     -79.846036      4.645583     
    863000   2551.6937     -74.955397     -79.573049     -79.573049      4.6176522    
    864000   2547.2417     -74.256332     -78.865927     -78.865927      4.6095957    
    865000   2475.4294     -73.951009     -78.43065      -78.43065       4.4796411    
    866000   2534.6798     -75.403697     -79.99056      -79.99056       4.5868631    
    867000   2544.792      -74.68534      -79.290503     -79.290503      4.6051626    
    868000   2583.2822     -76.709807     -81.384623     -81.384623      4.674816     
    869000   2573.8777     -74.571077     -79.228875     -79.228875      4.6577973    
    870000   2817.3345     -75.879578     -80.977945     -80.977945      5.098367     
    871000   2597.7493     -76.110544     -80.81154      -80.81154       4.7009963    
    872000   2841.0706     -75.707539     -80.84886      -80.84886       5.1413207    
    873000   2650.1882     -75.560477     -80.356369     -80.356369      4.795892     
    874000   2598.6284     -76.082228     -80.784815     -80.784815      4.7025873    
[...]
   1798000   645.94409     -83.895573     -85.0645       -85.0645        1.1689276    
   1799000   620.91999     -83.857526     -84.981169     -84.981169      1.1236429    
   1800000   610.65078     -83.641009     -84.746069     -84.746069      1.1050593    
   1801000   618.81447     -83.363044     -84.482876     -84.482876      1.1198327    
   1802000   651.98683     -83.756071     -84.935934     -84.935934      1.1798628    
   1803000   626.73387     -84.110143     -85.244307     -85.244307      1.1341639    
   1804000   620.52356     -83.919505     -85.04243      -85.04243       1.1229255    
   1805000   602.8552      -83.651642     -84.742594     -84.742594      1.0909521    
   1806000   605.64915     -83.270026     -84.366034     -84.366034      1.0960082    
   1807000   605.08617     -83.508547     -84.603537     -84.603537      1.0949894    
   1808000   591.42746     -83.692295     -84.762567     -84.762567      1.070272     
   1809000   606.01654     -83.727417     -84.82409      -84.82409       1.096673     
   1810000   588.98129     -83.755542     -84.821387     -84.821387      1.0658453    
   1811000   601.66684     -83.740152     -84.828954     -84.828954      1.0888016    
   1812000   607.96924     -83.546132     -84.646339     -84.646339      1.1002067    
   1813000   576.33147     -83.442139     -84.485093     -84.485093      1.0429536    
   1814000   585.62204     -83.939814     -84.99958      -84.99958       1.0597663    
   1815000   588.21841     -83.574066     -84.638531     -84.638531      1.0644648    
   1816000   591.76273     -83.198824     -84.269703     -84.269703      1.0708787    
   1817000   573.68909     -83.173556     -84.211727     -84.211727      1.0381719    
   1818000   606.16661     -83.396122     -84.493066     -84.493066      1.0969446    
   1819000   603.9179      -83.5878       -84.680675     -84.680675      1.0928752    
   1820000   576.59397     -83.323188     -84.366617     -84.366617      1.0434287    
   1821000   534.42992     -82.659053     -83.62618      -83.62618       0.96712684   
   1822000   559.58053     -82.819816     -83.832456     -83.832456      1.0126404    
   1823000   595.60801     -83.12385      -84.201687     -84.201687      1.0778373    
   1824000   534.11264     -83.299735     -84.266288     -84.266288      0.96655269   
   1825000   540.01476     -83.069342     -84.046576     -84.046576      0.9772334    
   1826000   530.72646     -83.407679     -84.368104     -84.368104      0.96042492   
   1827000   553.46414     -83.791396     -84.792968     -84.792968      1.001572     
   1828000   530.26737     -83.778612     -84.738206     -84.738206      0.95959412   
   1829000   509.06772     -83.647893     -84.569124     -84.569124      0.92123035   
   1830000   541.05003     -83.479854     -84.458961     -84.458961      0.97910687   
   1831000   559.67453     -83.6163       -84.629111     -84.629111      1.0128106    
   1832000   537.39154     -83.878604     -84.85109      -84.85109       0.97248631   
   1833000   522.08617     -83.909971     -84.85476      -84.85476       0.94478907   
   1834000   518.37794     -83.994459     -84.932537     -84.932537      0.9380785    
   1835000   536.01511     -83.958985     -84.92898      -84.92898       0.96999546   
   1836000   532.11493     -83.789469     -84.752406     -84.752406      0.96293753   
   1837000   517.65503     -83.017861     -83.954631     -83.954631      0.9367703    
   1838000   519.19173     -83.314599     -84.254151     -84.254151      0.93955118   
   1839000   524.40334     -83.99815      -84.947133     -84.947133      0.94898233   
   1840000   517.65436     -83.611002     -84.547771     -84.547771      0.93676908   
   1841000   511.39551     -84.100698     -85.026141     -85.026141      0.9254428    
   1842000   501.81459     -83.261743     -84.169847     -84.169847      0.90810477   
   1843000   509.48694     -83.762442     -84.684431     -84.684431      0.92198897   
   1844000   502.24799     -83.397159     -84.306048     -84.306048      0.90888907   
   1845000   482.66351     -84.059995     -84.933443     -84.933443      0.87344818   
   1846000   485.20565     -84.129136     -85.007184     -85.007184      0.87804854   
   1847000   483.64567     -83.809006     -84.684231     -84.684231      0.87522553   
   1848000   491.97929     -84.031339     -84.921645     -84.921645      0.89030641   
   1849000   482.39107     -84.331793     -85.204748     -85.204748      0.87295516   
   1850000   487.12782     -84.045874     -84.927401     -84.927401      0.88152697   
   1851000   468.60767     -83.839877     -84.687889     -84.687889      0.84801213   
   1852000   467.19114     -84.066903     -84.912351     -84.912351      0.84544873   
   1853000   459.45923     -83.636828     -84.468284     -84.468284      0.83145673   
   1854000   468.04788     -83.85964      -84.70664      -84.70664       0.84699912   
   1855000   484.62314     -83.900591     -84.777585     -84.777585      0.87699441   
   1856000   462.46623     -83.680351     -84.517249     -84.517249      0.83689833   
   1857000   466.52331     -84.050789     -84.89503      -84.89503       0.8442402    
   1858000   458.1935      -83.932488     -84.761654     -84.761654      0.82916622   
   1859000   456.21603     -83.909235     -84.734823     -84.734823      0.82558771   
   1860000   432.88873     -84.115875     -84.899249     -84.899249      0.78337365   
   1861000   437.50775     -84.134157     -84.925889     -84.925889      0.79173241   
   1862000   446.57446     -83.9678       -84.77594      -84.77594       0.80813992   
   1863000   443.43974     -83.900233     -84.702701     -84.702701      0.8024672    
   1864000   434.28813     -83.830646     -84.616552     -84.616552      0.78590606   
   1865000   424.06019     -84.040918     -84.808315     -84.808315      0.76739715   
   1866000   424.02767     -84.055032     -84.822371     -84.822371      0.76733829   
   1867000   437.40354     -84.317271     -85.108815     -85.108815      0.79154383   
   1868000   427.79089     -84.24636      -85.020508     -85.020508      0.77414837   
   1869000   414.33709     -83.960179     -84.709981     -84.709981      0.74980181   
   1870000   385.07973     -83.912375     -84.609232     -84.609232      0.69685647   
   1871000   452.03038     -83.994711     -84.812724     -84.812724      0.81801318   
   1872000   407.11968     -84.10807      -84.844811     -84.844811      0.73674089   
   1873000   410.39506     -84.210186     -84.952854     -84.952854      0.74266815   
   1874000   396.8547      -84.012795     -84.73096      -84.73096       0.71816494   
   1875000   426.5083      -84.057117     -84.828944     -84.828944      0.77182735   
   1876000   416.20352     -84.251004     -85.004184     -85.004184      0.75317938   
   1877000   398.05738     -84.430132     -85.150473     -85.150473      0.72034137   
   1878000   391.82751     -84.52734      -85.236408     -85.236408      0.70906752   
   1879000   382.71313     -84.251159     -84.943733     -84.943733      0.69257377   
   1880000   390.94847     -83.953576     -84.661053     -84.661053      0.70747677   
   1881000   366.56731     -84.066641     -84.729997     -84.729997      0.66335562   
   1882000   374.82825     -84.297603     -84.975908     -84.975908      0.67830495   
   1883000   381.10592     -84.410435     -85.100101     -85.100101      0.68966529   
   1884000   393.94511     -84.455133     -85.168033     -85.168033      0.71289963   
   1885000   361.75203     -84.492269     -85.14691      -85.14691       0.65464168   
   1886000   390.1488      -84.212747     -84.918777     -84.918777      0.70602967   
   1887000   359.15497     -84.166665     -84.816607     -84.816607      0.64994192   
   1888000   366.54454     -84.383175     -85.046489     -85.046489      0.66331441   
   1889000   343.27133     -84.583521     -85.204719     -85.204719      0.62119823   
   1890000   353.78418     -84.42285      -85.063073     -85.063073      0.64022273   
   1891000   353.73583     -84.550982     -85.191117     -85.191117      0.64013523   
   1892000   376.67826     -84.070033     -84.751686     -84.751686      0.68165281   
   1893000   341.552       -84.267428     -84.885515     -84.885515      0.61808685   
   1894000   339.60308     -84.421178     -85.035738     -85.035738      0.61456001   
   1895000   353.32492     -84.651373     -85.290764     -85.290764      0.63939162   
   1896000   346.42976     -84.725889     -85.352802     -85.352802      0.62691386   
   1897000   350.69909     -84.684109     -85.318749     -85.318749      0.63463982   
   1898000   319.80418     -84.320003     -84.898734     -84.898734      0.57873109   
   1899000   344.1393      -84.292209     -84.914978     -84.914978      0.62276895   
   1900000   331.82513     -84.587401     -85.187886     -85.187886      0.6004847    
   1901000   333.0263      -84.787793     -85.390451     -85.390451      0.60265839   
   1902000   326.68126     -84.819675     -85.410852     -85.410852      0.59117613   
   1903000   328.21025     -84.674941     -85.268884     -85.268884      0.59394306   
   1904000   321.1364      -84.455234     -85.036376     -85.036376      0.58114194   
   1905000   325.19917     -84.684002     -85.272496     -85.272496      0.58849408   
   1906000   318.67235     -84.633398     -85.210081     -85.210081      0.57668288   
   1907000   322.33276     -84.914701     -85.498008     -85.498008      0.5833069    
   1908000   298.34294     -84.712627     -85.252521     -85.252521      0.53989392   
   1909000   311.36442     -84.678423     -85.241882     -85.241882      0.56345814   
   1910000   302.07799     -84.794663     -85.341316     -85.341316      0.54665302   
   1911000   304.53509     -84.667271     -85.21837      -85.21837       0.55109949   
   1912000   296.20528     -84.94509      -85.481115     -85.481115      0.53602552   
   1913000   300.33994     -84.774666     -85.318174     -85.318174      0.54350778   
   1914000   303.76113     -84.570044     -85.119743     -85.119743      0.5496989    
   1915000   293.3985      -84.810362     -85.341308     -85.341308      0.53094626   
   1916000   281.17658     -84.736884     -85.245713     -85.245713      0.50882896   
   1917000   278.65005     -84.970321     -85.474578     -85.474578      0.50425685   
   1918000   274.50517     -84.920594     -85.41735      -85.41735       0.49675609   
   1919000   262.24534     -84.631579     -85.106149     -85.106149      0.4745702    
   1920000   259.86646     -84.80699      -85.277255     -85.277255      0.47026527   
   1921000   259.3934      -84.810909     -85.280319     -85.280319      0.46940921   
   1922000   277.54678     -84.646669     -85.14893      -85.14893       0.50226033   
   1923000   263.05463     -84.740882     -85.216917     -85.216917      0.47603471   
   1924000   260.12964     -84.920474     -85.391216     -85.391216      0.47074153   
   1925000   258.07143     -84.79944      -85.266457     -85.266457      0.4670169    
   1926000   254.24775     -84.894834     -85.354931     -85.354931      0.46009742   
   1927000   258.12819     -84.794554     -85.261673     -85.261673      0.46711963   
   1928000   243.2052      -84.854362     -85.294476     -85.294476      0.44011435   
   1929000   246.51419     -84.943277     -85.38938      -85.38938       0.44610243   
   1930000   239.62035     -84.952334     -85.385961     -85.385961      0.43362706   
   1931000   228.59495     -84.784487     -85.198162     -85.198162      0.41367502   
   1932000   233.69556     -84.614262     -85.037168     -85.037168      0.42290532   
   1933000   230.74403     -84.854694     -85.272258     -85.272258      0.41756409   
   1934000   234.70381     -84.84371      -85.26844      -85.26844       0.42472988   
   1935000   216.80326     -84.82352      -85.215856     -85.215856      0.3923363    
   1936000   218.3562      -84.719133     -85.114279     -85.114279      0.39514656   
   1937000   212.96599     -84.638494     -85.023886     -85.023886      0.3853922    
   1938000   209.20891     -84.558822     -84.937415     -84.937415      0.37859323   
   1939000   213.82848     -84.866439     -85.253392     -85.253392      0.38695301   
   1940000   209.65712     -84.968233     -85.347638     -85.347638      0.37940434   
   1941000   215.87156     -84.923364     -85.314014     -85.314014      0.39065025   
   1942000   191.45563     -84.70559      -85.052056     -85.052056      0.34646616   
   1943000   208.47764     -84.796409     -85.173679     -85.173679      0.3772699    
   1944000   195.5321      -84.786496     -85.140339     -85.140339      0.35384311   
   1945000   196.12871     -84.855055     -85.209978     -85.209978      0.35492275   
   1946000   195.3683      -84.715862     -85.069409     -85.069409      0.35354669   
   1947000   180.06745     -84.601183     -84.927041     -84.927041      0.32585762   
   1948000   177.13541     -84.720183     -85.040734     -85.040734      0.32055168   
   1949000   188.44054     -84.830994     -85.172004     -85.172004      0.34100992   
   1950000   185.40454     -84.907578     -85.243094     -85.243094      0.33551585   
   1951000   169.75035     -84.925646     -85.232834     -85.232834      0.30718736   
   1952000   171.08657     -84.792963     -85.102569     -85.102569      0.30960545   
   1953000   166.47698     -84.827509     -85.128773     -85.128773      0.30126373   
   1954000   163.13743     -84.824659     -85.11988      -85.11988       0.29522036   
   1955000   165.85016     -84.927383     -85.227513     -85.227513      0.30012943   
   1956000   169.8208      -84.940257     -85.247572     -85.247572      0.30731486   
   1957000   167.62044     -84.746957     -85.05029      -85.05029       0.30333299   
   1958000   157.35703     -84.839382     -85.124142     -85.124142      0.28475989   
   1959000   149.40399     -84.918372     -85.18874      -85.18874       0.27036774   
   1960000   150.37857     -85.060484     -85.332615     -85.332615      0.27213138   
   1961000   150.96116     -84.908067     -85.181253     -85.181253      0.27318567   
   1962000   144.63236     -85.015893     -85.277626     -85.277626      0.2617328    
   1963000   140.3067      -85.009999     -85.263904     -85.263904      0.2539049    
   1964000   146.58438     -85.019641     -85.284906     -85.284906      0.26526525   
   1965000   133.99823     -85.082782     -85.325271     -85.325271      0.24248883   
   1966000   130.31001     -84.956384     -85.192198     -85.192198      0.23581446   
   1967000   135.49735     -84.99042      -85.235621     -85.235621      0.24520169   
   1968000   128.63575     -85.146064     -85.378849     -85.378849      0.23278465   
   1969000   118.47529     -85.088326     -85.302724     -85.302724      0.21439787   
   1970000   116.22521     -85.043952     -85.254278     -85.254278      0.21032602   
   1971000   115.95654     -85.076685     -85.286525     -85.286525      0.20983983   
   1972000   115.81501     -85.120009     -85.329593     -85.329593      0.20958371   
   1973000   114.50352     -85.131665     -85.338875     -85.338875      0.20721038   
   1974000   105.53451     -85.189198     -85.380178     -85.380178      0.19097969   
   1975000   100.60486     -85.10896      -85.291019     -85.291019      0.18205879   
   1976000   105.33866     -85.159418     -85.350043     -85.350043      0.19062528   
   1977000   108.40697     -85.216566     -85.412744     -85.412744      0.19617781   
   1978000   94.81392      -85.211727     -85.383306     -85.383306      0.17157926   
   1979000   89.605395     -85.199833     -85.361987     -85.361987      0.16215369   
   1980000   86.809108     -85.134552     -85.291646     -85.291646      0.15709341   
   1981000   84.889802     -85.16886      -85.32248      -85.32248       0.15362015   
   1982000   81.40171      -85.286556     -85.433864     -85.433864      0.14730796   
   1983000   82.552544     -85.280004     -85.429394     -85.429394      0.14939055   
   1984000   74.473082     -85.277274     -85.412044     -85.412044      0.13476962   
   1985000   73.714918     -85.213302     -85.346699     -85.346699      0.13339761   
   1986000   72.45156      -85.298398     -85.429509     -85.429509      0.13111139   
   1987000   67.881161     -85.36141      -85.484251     -85.484251      0.1228406    
   1988000   65.635082     -85.292517     -85.411293     -85.411293      0.118776     
   1989000   59.322255     -85.320446     -85.427798     -85.427798      0.10735205   
   1990000   58.931637     -85.296218     -85.402864     -85.402864      0.10664517   
   1991000   56.406396     -85.320639     -85.422715     -85.422715      0.10207539   
   1992000   55.310408     -85.367881     -85.467973     -85.467973      0.10009204   
   1993000   51.194148     -85.372662     -85.465306     -85.465306      0.092643082  
   1994000   49.582127     -85.308127     -85.397853     -85.397853      0.089725902  
   1995000   46.178413     -85.334681     -85.418247     -85.418247      0.083566398  
   1996000   41.102191     -85.399069     -85.47345      -85.47345       0.074380253  
   1997000   39.785784     -85.416893     -85.488891     -85.488891      0.071998028  
   1998000   35.122858     -85.39858      -85.462139     -85.462139      0.0635598    
   1999000   33.715431     -85.395309     -85.456322     -85.456322      0.061012862  
   2000000   30.398098     -85.41895      -85.47396      -85.47396       0.055009677  
   2001000   26.973436     -85.473399     -85.522211     -85.522211      0.048812264  
   2002000   24.685706     -85.477343     -85.522015     -85.522015      0.044672291  
   2003000   20.392665     -85.474492     -85.511396     -85.511396      0.036903424  
   2004000   18.939772     -85.489039     -85.523313     -85.523313      0.034274208  
   2005000   15.401965     -85.508028     -85.5359       -85.5359        0.027872044  
   2006000   12.043596     -85.526435     -85.54823      -85.54823       0.021794597  
   2007000   9.3740076     -85.531356     -85.54832      -85.54832       0.016963598  
   2008000   6.1697901     -85.534634     -85.545799     -85.545799      0.011165112  
   2009000   3.2606718     -85.547228     -85.553129     -85.553129      0.0059006488 
   2010000   0.13921799    -85.560077     -85.560329     -85.560329      0.00025193472
   2010033   0.037902148   -85.560337     -85.560405     -85.560405      6.858932e-05 
Loop time of 139.064 on 1 procs for 1000000 steps with 15 atoms

Performance: 62.130 ns/day, 0.386 hours/ns, 7190.938 timesteps/s, 107.864 katom-step/s
99.0% CPU use with 1 MPI tasks x 1 OpenMP threads

MPI task timing breakdown:
Section |  min time  |  avg time  |  max time  |%varavg| %total
---------------------------------------------------------------
Pair    | 122.37     | 122.37     | 122.37     |   0.0 | 88.00
Neigh   | 2.4971     | 2.4971     | 2.4971     |   0.0 |  1.80
Comm    | 2.7702     | 2.7702     | 2.7702     |   0.0 |  1.99
Output  | 0.83111    | 0.83111    | 0.83111    |   0.0 |  0.60
Modify  | 8.2765     | 8.2765     | 8.2765     |   0.0 |  5.95
Other   |            | 2.315      |            |       |  1.66

Nlocal:             15 ave          15 max          15 min
Histogram: 1 0 0 0 0 0 0 0 0 0
Nghost:             63 ave          63 max          63 min
Histogram: 1 0 0 0 0 0 0 0 0 0
Neighs:              0 ave           0 max           0 min
Histogram: 1 0 0 0 0 0 0 0 0 0
FullNghs:          178 ave         178 max         178 min
Histogram: 1 0 0 0 0 0 0 0 0 0

Total # of neighbors = 178
Ave neighs/atom = 11.866667
Neighbor list builds = 17563
Dangerous builds = 0
write_restart 	./endconf/endconf*3.restart
System init for write_restart ...

Total wall time: 0:03:40
