LAMMPS (15 Jun 2023)
OMP_NUM_THREADS environment is not set. Defaulting to 1 thread. (src/comm.cpp:98)
  using 1 OpenMP thread(s) per MPI task
Open of file C:\Users\adede\Desktop\LAMMPS USER-BFIELD Plugin 17Apr2024-MSMPI\bfieldplugin.so failed: 
Loaded 0 plugins from C:\Users\adede\Desktop\LAMMPS USER-BFIELD Plugin 17Apr2024-MSMPI
Loaded 1 plugins from C:\Users\adede\AppData\Local\LAMMPS 64-bit 15Jun2023\plugins
#============Initialization=================
units 			metal
atom_style 		atomic
boundary 		p p p

############################################
#              CLI Variables               #
############################################
variable 		seed index 200093          #
variable 		N index 8                  #
variable 		iter index 100000000       #
variable 		iterther index 1000000     #
variable 		iexport index 1000000      #
variable 		tempchauf index 3000       #
variable 		Tdamp index 0.001          #
variable 		timestep index 0.0001      #
############################################
############################################
#=========Simulation box definition=========
lattice 		sc 1.0
Lattice spacing in x,y,z = 1 1 1
region 			bigbox block 0 100 0 100 0 100
create_box 		1 bigbox
Created orthogonal box = (0 0 0) to (100 100 100)
  1 by 1 by 1 MPI processor grid

#==================Atoms====================
region 			safezone block 45 65 45 65 45 65 units box
create_atoms 	1 random ${N} ${seed} safezone
create_atoms 	1 random 8 ${seed} safezone
create_atoms 	1 random 8 200093 safezone
Created 8 atoms
  using lattice units in orthogonal box = (0 0 0) to (100 100 100)
  create_atoms CPU = 0.001 seconds
labelmap 		atom 1 C
mass 			* 12.01



#==========Velocity initialization==========
velocity 		all create 0.0000001 1563967 rot yes dist gaussian

#======Pair style for atom interactions=============
pair_style 		airebo 1.8 1 1
pair_coeff 		* * CH.airebo C
Reading airebo potential file CH.airebo with DATE: 2011-10-25

#==============Neighbor selection===================
neighbor 		0.3 bin
neigh_modify 	every 1 delay 0 check yes



#==============Custom Wall force====================
#==========Wall with harmonic potential=============
#variable       k equal 10.0

#fix             xlo_wall all wall/harmonic xlo EDGE v_k 1.0 0.7
#fix             xhi_wall all wall/harmonic xhi EDGE v_k 1.0 0.7
#fix             ylo_wall all wall/harmonic ylo EDGE v_k 1.0 0.7
#fix             yhi_wall all wall/harmonic yhi EDGE v_k 1.0 0.7
#fix             zlo_wall all wall/harmonic zlo EDGE v_k 1.0 0.7
#fix             zhi_wall all wall/harmonic zhi EDGE v_k 1.0 0.7



#=====================Timestep======================
timestep 		${timestep}
timestep 		0.0001

#===============Define dump command=================
dump 			1 all cfg 100000 ./dump/dump.tensile_*.cfg mass type xs ys zs vx vy vz id

#========System temperature printing info===========
thermo_style 	custom step temp etotal epair pe ke
thermo 			${iexport}	# 1'000'000
thermo 			1000000	



#====================CRC Cycle======================

#=============Condensation et chauffe===============

# Minimize during the heating phase
#min_style       sd
#minimize        1.0e-5 1.0e-7 500 1000

fix 			1 all nve
fix 			2 all temp/berendsen 0.0 ${tempchauf} ${Tdamp}
fix 			2 all temp/berendsen 0.0 3000 ${Tdamp}
fix 			2 all temp/berendsen 0.0 3000 0.001
fix             3 all momentum 1 linear 1 1 1 angular rescale

run 			${iter}
run 			100000000
Neighbor list info ...
  update: every = 1 steps, delay = 0 steps, check = yes
  max neighbors/atom: 2000, page size: 100000
  master list distance cutoff = 8.116371
  ghost atom cutoff = 8.116371
  binsize = 4.0581855, bins = 25 25 25
  1 neighbor lists, perpetual/occasional/extra = 1 0 0
  (1) pair airebo, perpetual
      attributes: full, newton on, ghost
      pair build: full/bin/ghost
      stencil: full/ghost/bin/3d
      bin: standard
Per MPI rank memory allocation (min/avg/max) = 3.978 | 3.978 | 3.978 Mbytes
   Step          Temp          TotEng         E_pair         PotEng         KinEng    
         0   1e-07          9.0482101e-11  0              0              9.0482101e-11
   1000000   29.99973       0.027144386    0              0              0.027144386  
   2000000   59.99973       0.054289017    0              0              0.054289017  
   3000000   89.99973       0.081433647    0              0              0.081433647  
   4000000   119.99934     -6.1010221     -6.2096        -6.2096         0.10857793   
   5000000   150.00036     -6.0738268     -6.2095502     -6.2095502      0.13572347   
   6000000   179.9994      -6.0465587     -6.2094259     -6.2094259      0.16286724   
   7000000   209.99952     -6.0191525     -6.2091645     -6.2091645      0.19001198   
   8000000   240.00185     -5.9918829     -6.2090416     -6.2090416      0.21715872   
   9000000   269.99796     -5.9645631     -6.2088629     -6.2088629      0.24429982   
  10000000   300.00074     -5.937209      -6.208656      -6.208656       0.27144698   
  11000000   329.89231     -12.119339     -12.417833     -12.417833      0.29849349   
  12000000   360.00123     -12.09295      -12.418687     -12.418687      0.32573668   
  13000000   389.99967     -12.065629     -12.418508     -12.418508      0.3528799    
  14000000   420.0039      -12.038136     -12.418165     -12.418165      0.38002836   
  15000000   450.00027     -12.010882     -12.418052     -12.418052      0.4071697    
  16000000   479.99955     -11.983443     -12.417756     -12.417756      0.43431368   
  17000000   510.00051     -11.955979     -12.417438     -12.417438      0.46145918   
  18000000   539.99911     -11.928572     -12.417174     -12.417174      0.48860254   
  19000000   570.00276     -11.901106     -12.416857     -12.416857      0.51575048   
  20000000   601.78948     -18.552708     -19.09722      -19.09722       0.54451177   
  21000000   630.05682     -18.537799     -19.107888     -19.107888      0.57008865   
  22000000   660.01153     -18.511893     -19.109085     -19.109085      0.5971923    
  23000000   689.9822      -18.485361     -19.109672     -19.109672      0.6243104    
  24000000   719.98842     -18.458249     -19.10971      -19.10971       0.65146065   
  25000000   749.97435     -18.430896     -19.109488     -19.109488      0.67859255   
  26000000   780.00372     -18.403064     -19.108827     -19.108827      0.70576376   
  27000000   810.06028     -24.439482     -25.172441     -25.172441      0.73295956   
  28000000   839.62552     -30.621356     -31.381067     -31.381067      0.75971081   
  29000000   882.88873     -39.782405     -40.581261     -40.581261      0.79885628   
  30000000   860.48241     -40.019404     -40.797986     -40.797986      0.77858256   
  31000000   959.07674     -40.151045     -41.018838     -41.018838      0.86779279   
  32000000   992.10268     -39.743556     -40.641231     -40.641231      0.89767535   
  33000000   1010.6896     -40.29769      -41.212183     -41.212183      0.91449315   
  34000000   1004.18       -39.962019     -40.870622     -40.870622      0.90860316   
  35000000   1058.8683     -39.785154     -40.74324      -40.74324       0.95808629   
  36000000   1071.9496     -39.437279     -40.407202     -40.407202      0.9699225    
  37000000   1092.1718     -40.394148     -41.382368     -41.382368      0.98821999   
  38000000   1127.663      -39.493395     -40.513728     -40.513728      1.0203331    
  39000000   1167.8062     -40.039266     -41.095922     -41.095922      1.0566556    
  40000000   1140.4418     -39.497149     -40.529045     -40.529045      1.0318957    
  41000000   1263.1568     -39.438398     -40.581329     -40.581329      1.1429308    
  42000000   1201.2861     -39.521236     -40.608184     -40.608184      1.0869489    
  43000000   1323.4481     -39.309084     -40.506568     -40.506568      1.1974836    
  44000000   1312.0471     -39.879336     -41.066504     -41.066504      1.1871678    
  45000000   1332.5685     -39.145214     -40.35095      -40.35095       1.2057359    
  46000000   1324.3232     -39.041069     -40.239344     -40.239344      1.1982755    
  47000000   1459.0435     -39.472031     -40.792205     -40.792205      1.3201732    
  48000000   1390.7528     -39.083113     -40.341495     -40.341495      1.2583824    
  49000000   1472.9773     -39.894063     -41.226844     -41.226844      1.3327808    
  50000000   1455.6595     -39.091909     -40.409021     -40.409021      1.3171113    
  51000000   1556.1948     -39.047122     -40.455199     -40.455199      1.4080778    
  52000000   1559.3691     -38.025855     -39.436805     -39.436805      1.4109499    
  53000000   1541.5908     -39.528381     -40.923245     -40.923245      1.3948637    
  54000000   1694.7047     -39.019026     -40.552431     -40.552431      1.5334044    
  55000000   1748.8922     -39.376046     -40.958481     -40.958481      1.5824344    
  56000000   1809.5493     -38.463892     -40.10121      -40.10121       1.6373183    
  57000000   1707.0391     -39.131803     -40.676368     -40.676368      1.5445649    
  58000000   1721.5069     -40.738311     -42.295967     -42.295967      1.5576556    
  59000000   1832.3931     -39.877795     -41.535783     -41.535783      1.6579878    
  60000000   1803.3477     -41.051565     -42.683272     -42.683272      1.6317069    
  61000000   1851.4548     -40.348727     -42.023962     -42.023962      1.6752353    
  62000000   1935.3724     -39.848183     -41.599349     -41.599349      1.7511656    
  63000000   1857.4871     -40.082203     -41.762896     -41.762896      1.6806934    
  64000000   1839.1701     -40.561021     -42.225141     -42.225141      1.6641198    
  65000000   1863.0156     -39.00877      -40.694466     -40.694466      1.6856956    
  66000000   2063.3227     -39.592417     -41.459355     -41.459355      1.8669378    
  67000000   2101.0986     -40.710518     -42.611636     -42.611636      1.9011181    
  68000000   2120.0047     -40.73748      -42.655705     -42.655705      1.9182248    
  69000000   1828.0846     -38.045053     -39.699142     -39.699142      1.6540893    
  70000000   2007.8849     -39.95064      -41.767417     -41.767417      1.8167765    
  71000000   2147.8181     -39.911335     -41.854726     -41.854726      1.9433909    
  72000000   2037.0139     -38.712504     -40.555637     -40.555637      1.843133     
  73000000   2325.9644     -39.728737     -41.833319     -41.833319      2.1045815    
  74000000   2443.988      -38.509311     -40.720683     -40.720683      2.2113717    
  75000000   2351.9191     -39.083015     -41.211081     -41.211081      2.1280659    
  76000000   2208.7644     -39.036323     -41.034859     -41.034859      1.9985365    
  77000000   2315.8004     -40.039857     -42.135242     -42.135242      2.0953849    
  78000000   2402.1366     -39.974697     -42.148201     -42.148201      2.1735037    
  79000000   2333.5781     -39.765625     -41.877096     -41.877096      2.1114705    
  80000000   2451.3952     -40.523903     -42.741977     -42.741977      2.2180739    
  81000000   2452.444      -38.774271     -40.993294     -40.993294      2.2190228    
  82000000   2412.1056     -39.61368      -41.796203     -41.796203      2.1825238    
  83000000   2743.8137     -39.275124     -41.757784     -41.757784      2.4826603    
  84000000   2568.6654     -40.177517     -42.501699     -42.501699      2.3241824    
  85000000   2449.1739     -39.291703     -41.507767     -41.507767      2.216064     
  86000000   2541.0177     -39.173308     -41.472474     -41.472474      2.2991662    
  87000000   2647.7967     -39.668503     -42.064285     -42.064285      2.3957821    
  88000000   2577.0854     -38.021509     -40.35331      -40.35331       2.331801     
  89000000   2460.0843     -37.437667     -39.663603     -39.663603      2.225936     
  90000000   2704.4752     -37.789438     -40.236504     -40.236504      2.447066     
  91000000   2731.8118     -38.614669     -41.08647      -41.08647       2.4718007    
  92000000   2745.0111     -39.361771     -41.845515     -41.845515      2.4837437    
  93000000   2818.2977     -38.180386     -40.730441     -40.730441      2.550055     
  94000000   2913.3171     -38.952404     -41.588435     -41.588435      2.6360305    
  95000000   2935.9173     -38.879946     -41.536426     -41.536426      2.6564797    
  96000000   2957.1508     -37.737072     -40.412764     -40.412764      2.6756922    
  97000000   3199.1139     -37.043665     -39.93829      -39.93829       2.8946255    
  98000000   2925.8026     -38.419443     -41.066771     -41.066771      2.6473277    
  99000000   2809.0254     -37.193082     -39.734747     -39.734747      2.5416652    
 100000000   3208.0049     -38.176116     -41.078786     -41.078786      2.9026702    
Loop time of 1361.51 on 1 procs for 100000000 steps with 8 atoms

Performance: 634.591 ns/day, 0.038 hours/ns, 73448.000 timesteps/s, 587.584 katom-step/s
97.7% CPU use with 1 MPI tasks x 1 OpenMP threads

MPI task timing breakdown:
Section |  min time  |  avg time  |  max time  |%varavg| %total
---------------------------------------------------------------
Pair    | 1071.5     | 1071.5     | 1071.5     |   0.0 | 78.70
Neigh   | 38.41      | 38.41      | 38.41      |   0.0 |  2.82
Comm    | 23.554     | 23.554     | 23.554     |   0.0 |  1.73
Output  | 0.80477    | 0.80477    | 0.80477    |   0.0 |  0.06
Modify  | 151.8      | 151.8      | 151.8      |   0.0 | 11.15
Other   |            | 75.41      |            |       |  5.54

Nlocal:              8 ave           8 max           8 min
Histogram: 1 0 0 0 0 0 0 0 0 0
Nghost:              0 ave           0 max           0 min
Histogram: 1 0 0 0 0 0 0 0 0 0
Neighs:              0 ave           0 max           0 min
Histogram: 1 0 0 0 0 0 0 0 0 0
FullNghs:           56 ave          56 max          56 min
Histogram: 1 0 0 0 0 0 0 0 0 0

Total # of neighbors = 56
Ave neighs/atom = 7
Neighbor list builds = 1638460
Dangerous builds = 0
write_restart 	./endconf/endconf*1.restart
System init for write_restart ...

#==============Constant Temp Phase==================

# Minimize during the constant temperature phase
min_style       sd
minimize        1.0e-5 1.0e-7 500 1000
Per MPI rank memory allocation (min/avg/max) = 6.354 | 6.354 | 6.354 Mbytes
   Step          Temp          TotEng         E_pair         PotEng         KinEng    
 100000000   3208.0049     -38.176116     -41.078786     -41.078786      2.9026702    
 100000023   3208.0049     -40.104679     -43.007349     -43.007349      2.9026702    
Loop time of 0.011113 on 1 procs for 23 steps with 8 atoms

0.0% CPU use with 1 MPI tasks x 1 OpenMP threads

Minimization stats:
  Stopping criterion = energy tolerance
  Energy initial, next-to-last, final = 
     -41.0787858460662  -43.0069742455416  -43.0073492887546
  Force two-norm initial, final = 18.96854 1.4098842
  Force max component initial, final = 11.170486 0.67862401
  Final line search alpha, max atom move = 0.3888492 0.26388241
  Iterations, force evaluations = 23 48

MPI task timing breakdown:
Section |  min time  |  avg time  |  max time  |%varavg| %total
---------------------------------------------------------------
Pair    | 0.001026   | 0.001026   | 0.001026   |   0.0 |  9.23
Neigh   | 0.000306   | 0.000306   | 0.000306   |   0.0 |  2.75
Comm    | 4.3e-05    | 4.3e-05    | 4.3e-05    |   0.0 |  0.39
Output  | 0          | 0          | 0          |   0.0 |  0.00
Modify  | 0          | 0          | 0          |   0.0 |  0.00
Other   |            | 0.009738   |            |       | 87.63

Nlocal:              8 ave           8 max           8 min
Histogram: 1 0 0 0 0 0 0 0 0 0
Nghost:              0 ave           0 max           0 min
Histogram: 1 0 0 0 0 0 0 0 0 0
Neighs:              0 ave           0 max           0 min
Histogram: 1 0 0 0 0 0 0 0 0 0
FullNghs:           56 ave          56 max          56 min
Histogram: 1 0 0 0 0 0 0 0 0 0

Total # of neighbors = 56
Ave neighs/atom = 7
Neighbor list builds = 10
Dangerous builds = 0

unfix 			2
fix 			4 all temp/berendsen ${tempchauf} ${tempchauf} ${Tdamp}
fix 			4 all temp/berendsen 3000 ${tempchauf} ${Tdamp}
fix 			4 all temp/berendsen 3000 3000 ${Tdamp}
fix 			4 all temp/berendsen 3000 3000 0.001

run 			${iterther}
run 			1000000
Per MPI rank memory allocation (min/avg/max) = 5.229 | 5.229 | 5.229 Mbytes
   Step          Temp          TotEng         E_pair         PotEng         KinEng    
 100000023   3208.0049     -40.104679     -43.007349     -43.007349      2.9026702    
 101000000   2986.1373     -38.505667     -41.207587     -41.207587      2.7019198    
 101000023   2993.4337     -38.480791     -41.189313     -41.189313      2.7085217    
Loop time of 16.8164 on 1 procs for 1000000 steps with 8 atoms

Performance: 513.783 ns/day, 0.047 hours/ns, 59465.625 timesteps/s, 475.725 katom-step/s
96.4% CPU use with 1 MPI tasks x 1 OpenMP threads

MPI task timing breakdown:
Section |  min time  |  avg time  |  max time  |%varavg| %total
---------------------------------------------------------------
Pair    | 13.52      | 13.52      | 13.52      |   0.0 | 80.40
Neigh   | 0.54146    | 0.54146    | 0.54146    |   0.0 |  3.22
Comm    | 0.22002    | 0.22002    | 0.22002    |   0.0 |  1.31
Output  | 0.008027   | 0.008027   | 0.008027   |   0.0 |  0.05
Modify  | 1.5558     | 1.5558     | 1.5558     |   0.0 |  9.25
Other   |            | 0.971      |            |       |  5.77

Nlocal:              8 ave           8 max           8 min
Histogram: 1 0 0 0 0 0 0 0 0 0
Nghost:              0 ave           0 max           0 min
Histogram: 1 0 0 0 0 0 0 0 0 0
Neighs:              0 ave           0 max           0 min
Histogram: 1 0 0 0 0 0 0 0 0 0
FullNghs:           54 ave          54 max          54 min
Histogram: 1 0 0 0 0 0 0 0 0 0

Total # of neighbors = 54
Ave neighs/atom = 6.75
Neighbor list builds = 23473
Dangerous builds = 0
write_restart 	./endconf/endconf*2.restart
System init for write_restart ...

#=================Cooling Phase=====================

# Re-minimize before cooling
#min_style       sd
#minimize        1.0e-5 1.0e-7 500 1000

unfix 			4
fix 			5 all temp/berendsen ${tempchauf} 0.0 ${Tdamp}
fix 			5 all temp/berendsen 3000 0.0 ${Tdamp}
fix 			5 all temp/berendsen 3000 0.0 0.001

run 			${iter}
run 			100000000
Per MPI rank memory allocation (min/avg/max) = 5.229 | 5.229 | 5.229 Mbytes
   Step          Temp          TotEng         E_pair         PotEng         KinEng    
 101000023   2993.4337     -38.480791     -41.189313     -41.189313      2.7085217    
 102000000   3049.8419     -38.185078     -40.944639     -40.944639      2.759561     
 103000000   2902.7829     -38.898824     -41.525323     -41.525323      2.6264989    
 104000000   2966.8934     -39.270999     -41.955507     -41.955507      2.6845075    
 105000000   2959.5306     -39.233005     -41.910851     -41.910851      2.6778455    
 106000000   3071.6808     -39.122603     -41.901925     -41.901925      2.7793214    
 107000000   2762.1501     -39.224046     -41.723298     -41.723298      2.4992515    
 108000000   2797.0066     -38.0558       -40.58659      -40.58659       2.5307903    
 109000000   2803.6269     -38.008036     -40.544817     -40.544817      2.5367805    
 110000000   2658.12       -37.564625     -39.969748     -39.969748      2.4051228    
 111000000   2724.6693     -39.208233     -41.673571     -41.673571      2.4653381    
 112000000   2931.153      -39.330733     -41.982902     -41.982902      2.6521688    
 113000000   2715.3347     -38.442429     -40.899321     -40.899321      2.4568919    
 114000000   2595.6712     -38.556871     -40.905489     -40.905489      2.3486178    
 115000000   2421.2898     -39.421265     -41.612098     -41.612098      2.1908339    
 116000000   2483.1269     -39.4569       -41.703685     -41.703685      2.2467854    
 117000000   2518.5076     -39.47738      -41.756179     -41.756179      2.2787986    
 118000000   2479.2012     -39.779654     -42.022887     -42.022887      2.2432334    
 119000000   2346.7148     -37.968001     -40.091358     -40.091358      2.1233569    
 120000000   2535.725      -38.380541     -40.674919     -40.674919      2.2943773    
 121000000   2403.4143     -39.645435     -41.820095     -41.820095      2.1746598    
 122000000   2193.0348     -38.405686     -40.38999      -40.38999       1.984304     
 123000000   2246.3523     -38.856183     -40.88873      -40.88873       2.0325468    
 124000000   2439.12       -39.984059     -42.191026     -42.191026      2.206967     
 125000000   2243.1621     -39.193914     -41.223574     -41.223574      2.0296602    
 126000000   2302.4157     -38.563358     -40.646632     -40.646632      2.0832741    
 127000000   2149.9264     -39.516215     -41.461513     -41.461513      1.9452986    
 128000000   2065.8857     -38.902803     -40.77206      -40.77206       1.8692568    
 129000000   2174.4129     -39.278841     -41.246295     -41.246295      1.9674545    
 130000000   2032.1762     -39.776664     -41.61542      -41.61542       1.8387557    
 131000000   2101.5985     -39.563251     -41.464821     -41.464821      1.9015704    
 132000000   2012.6618     -40.433141     -42.25424      -42.25424       1.8210987    
 133000000   1948.6569     -39.554895     -41.318081     -41.318081      1.7631857    
 134000000   2011.9918     -40.187096     -42.007588     -42.007588      1.8204925    
 135000000   1911.9992     -39.889766     -41.619783     -41.619783      1.730017     
 136000000   1973.8716     -40.495608     -42.281609     -42.281609      1.7860005    
 137000000   1887.4576     -40.621453     -42.329265     -42.329265      1.7078113    
 138000000   1827.381      -40.748656     -42.402109     -42.402109      1.6534528    
 139000000   1889.3332     -39.721693     -41.431202     -41.431202      1.7095084    
 140000000   1878.9063     -40.438564     -42.138638     -42.138638      1.7000739    
 141000000   1818.8146     -41.06837      -42.714072     -42.714072      1.6457017    
 142000000   1719.9588     -40.037178     -41.593433     -41.593433      1.5562548    
 143000000   1703.5489     -40.820306     -42.361713     -42.361713      1.5414068    
 144000000   1699.1187     -40.581838     -42.119236     -42.119236      1.5373983    
 145000000   1632.7114     -40.610509     -42.087821     -42.087821      1.4773116    
 146000000   1656.1394     -40.118099     -41.616609     -41.616609      1.4985097    
 147000000   1605.9747     -40.847388     -42.300508     -42.300508      1.4531197    
 148000000   1568.538      -40.669584     -42.08883      -42.08883       1.4192461    
 149000000   1650.0824     -40.305143     -41.798173     -41.798173      1.4930293    
 150000000   1629.8816     -40.857422     -42.332173     -42.332173      1.4747511    
 151000000   1408.9691     -40.922741     -42.197606     -42.197606      1.2748648    
 152000000   1421.058      -40.413435     -41.699238     -41.699238      1.2858031    
 153000000   1403.6216     -41.028876     -42.298902     -42.298902      1.2700263    
 154000000   1433.3324     -40.63333      -41.930239     -41.930239      1.2969093    
 155000000   1348.3444     -40.895517     -42.115528     -42.115528      1.2200104    
 156000000   1455.3537     -41.401973     -42.718808     -42.718808      1.3168346    
 157000000   1236.2678     -40.565944     -41.684545     -41.684545      1.1186011    
 158000000   1312.5078     -41.137535     -42.32512      -42.32512       1.1875846    
 159000000   1251.2936     -41.129636     -42.261832     -42.261832      1.1321968    
 160000000   1225.0985     -41.353128     -42.461622     -42.461622      1.1084949    
 161000000   1221.1892     -41.806205     -42.911163     -42.911163      1.1049577    
 162000000   1181.9771     -41.710539     -42.780017     -42.780017      1.0694777    
 163000000   1193.0514     -41.135257     -42.214755     -42.214755      1.079498     
 164000000   1068.2558     -41.625986     -42.592567     -42.592567      0.96658031   
 165000000   1068.1137     -41.667582     -42.634033     -42.634033      0.9664517    
 166000000   1075.0623     -41.931116     -42.903855     -42.903855      0.97273898   
 167000000   1045.0752     -41.625407     -42.571013     -42.571013      0.94560598   
 168000000   934.65991     -41.54905      -42.39475      -42.39475       0.84569993   
 169000000   999.96615     -42.244105     -43.148895     -43.148895      0.90479039   
 170000000   920.46076     -42.355776     -43.188629     -43.188629      0.83285224   
 171000000   859.71217     -41.870547     -42.648433     -42.648433      0.77788564   
 172000000   880.89514     -42.203767     -43.000819     -43.000819      0.79705243   
 173000000   836.54663     -41.5328       -42.289725     -42.289725      0.75692497   
 174000000   817.94959     -42.219936     -42.960034     -42.960034      0.74009798   
 175000000   805.10118     -41.834867     -42.56334      -42.56334       0.72847246   
 176000000   779.94506     -42.317213     -43.022924     -43.022924      0.70571068   
 177000000   693.28171     -42.268342     -42.895638     -42.895638      0.62729586   
 178000000   676.46755     -42.399517     -43.011599     -43.011599      0.61208206   
 179000000   662.42792     -42.243443     -42.842822     -42.842822      0.59937871   
 180000000   641.7472      -42.488698     -43.069365     -43.069365      0.58066635   
 181000000   606.13716     -42.592006     -43.140452     -43.140452      0.54844564   
 182000000   572.89643     -42.304815     -42.823184     -42.823184      0.51836873   
 183000000   531.53527     -42.655388     -43.136332     -43.136332      0.48094428   
 184000000   515.35141     -42.646587     -43.112888     -43.112888      0.46630078   
 185000000   452.70453     -42.607315     -43.016931     -43.016931      0.40961657   
 186000000   502.91551     -42.890895     -43.345943     -43.345943      0.45504852   
 187000000   429.10352     -42.890196     -43.278458     -43.278458      0.38826189   
 188000000   373.96143     -43.002755     -43.341123     -43.341123      0.33836816   
 189000000   357.88009     -42.950638     -43.274455     -43.274455      0.32381743   
 190000000   339.39826     -43.134968     -43.442063     -43.442063      0.30709468   
 191000000   308.09644     -43.044715     -43.323487     -43.323487      0.27877214   
 192000000   261.61237     -43.131057     -43.367769     -43.367769      0.23671237   
 193000000   240.93829     -43.152317     -43.370323     -43.370323      0.21800603   
 194000000   209.60503     -43.212654     -43.402309     -43.402309      0.18965503   
 195000000   175.22185     -43.243289     -43.401833     -43.401833      0.15854441   
 196000000   154.76502     -43.127642     -43.267677     -43.267677      0.14003464   
 197000000   111.33441     -43.401416     -43.502154     -43.502154      0.10073772   
 198000000   93.002884     -43.40997      -43.494121     -43.494121      0.084150964  
 199000000   58.092543     -43.501194     -43.553757     -43.553757      0.052563354  
 200000000   29.315288     -43.55151      -43.578035     -43.578035      0.026525089  
 201000000   0.0009907831  -43.59499      -43.594991     -43.594991      8.9648137e-07
 201000023   0.00029520162 -43.59499      -43.594991     -43.594991      2.6710463e-07
Loop time of 1404.39 on 1 procs for 100000000 steps with 8 atoms

Performance: 615.213 ns/day, 0.039 hours/ns, 71205.193 timesteps/s, 569.642 katom-step/s
97.7% CPU use with 1 MPI tasks x 1 OpenMP threads

MPI task timing breakdown:
Section |  min time  |  avg time  |  max time  |%varavg| %total
---------------------------------------------------------------
Pair    | 1155.2     | 1155.2     | 1155.2     |   0.0 | 82.26
Neigh   | 31.714     | 31.714     | 31.714     |   0.0 |  2.26
Comm    | 17.886     | 17.886     | 17.886     |   0.0 |  1.27
Output  | 0.82137    | 0.82137    | 0.82137    |   0.0 |  0.06
Modify  | 131.84     | 131.84     | 131.84     |   0.0 |  9.39
Other   |            | 66.93      |            |       |  4.77

Nlocal:              8 ave           8 max           8 min
Histogram: 1 0 0 0 0 0 0 0 0 0
Nghost:              0 ave           0 max           0 min
Histogram: 1 0 0 0 0 0 0 0 0 0
Neighs:              0 ave           0 max           0 min
Histogram: 1 0 0 0 0 0 0 0 0 0
FullNghs:           54 ave          54 max          54 min
Histogram: 1 0 0 0 0 0 0 0 0 0

Total # of neighbors = 54
Ave neighs/atom = 6.75
Neighbor list builds = 1560173
Dangerous builds = 0
write_restart 	./endconf/endconf*3.restart
System init for write_restart ...

Total wall time: 0:46:22
4   
 197000000   116.05686     -43.38305      -43.48806      -43.48806       0.10501069   
 198000000   93.797056     -43.419429     -43.504298     -43.504298      0.084869548  
 199000000   56.752765     -43.497125     -43.548476     -43.548476      0.051351095  
 200000000   32.085551     -43.538806     -43.567838     -43.567838      0.02903168   
 201000000   0.0037086833  -43.592072     -43.592075     -43.592075      3.3556946e-06
 201000114   0.00028264333 -43.592075     -43.592075     -43.592075      2.5574162e-07
Loop time of 1634.29 on 1 procs for 100000000 steps with 8 atoms

Performance: 528.671 ns/day, 0.045 hours/ns, 61188.828 timesteps/s, 489.511 katom-step/s
98.1% CPU use with 1 MPI tasks x 1 OpenMP threads

MPI task timing breakdown:
Section |  min time  |  avg time  |  max time  |%varavg| %total
---------------------------------------------------------------
Pair    | 1321.8     | 1321.8     | 1321.8     |   0.0 | 80.88
Neigh   | 46.267     | 46.267     | 46.267     |   0.0 |  2.83
Comm    | 33.101     | 33.101     | 33.101     |   0.0 |  2.03
Output  | 1.0457     | 1.0457     | 1.0457     |   0.0 |  0.06
Modify  | 153.83     | 153.83     | 153.83     |   0.0 |  9.41
Other   |            | 78.29      |            |       |  4.79

Nlocal:              8 ave           8 max           8 min
Histogram: 1 0 0 0 0 0 0 0 0 0
Nghost:              8 ave           8 max           8 min
Histogram: 1 0 0 0 0 0 0 0 0 0
Neighs:              0 ave           0 max           0 min
Histogram: 1 0 0 0 0 0 0 0 0 0
FullNghs:           54 ave          54 max          54 min
Histogram: 1 0 0 0 0 0 0 0 0 0

Total # of neighbors = 54
Ave neighs/atom = 6.75
Neighbor list builds = 1546371
Dangerous builds = 0
write_restart 	./endconf/endconf*3.restart
System init for write_restart ...


Total wall time: 0:42:45
