LAMMPS (29 Sep 2021 - Update 2)
OMP_NUM_THREADS environment is not set. Defaulting to 1 thread. (src/comm.cpp:98)
  using 1 OpenMP thread(s) per MPI task
#============Initialization=================
units 			metal
atom_style 		atomic
boundary 		p p p

############################################
#              CLI Variables               #
############################################
variable 		seed index 200093          #
variable 		N index 6                  #
variable 		iter index 1000000         #
variable 		iterther index 100000      #
variable 		iexport index 1000         #
variable 		tempchauf index 3000       #
variable 		Tdamp index 0.001          #
variable 		timestep index 0.0001      #
variable 		box_size index 30		   #
############################################
############################################

#=========Simulation box definition=========
lattice 		sc 1.0
Lattice spacing in x,y,z = 1.0000000 1.0000000 1.0000000
region 			bigbox block 0 ${box_size} 0 ${box_size} 0 ${box_size}
region 			bigbox block 0 30 0 ${box_size} 0 ${box_size}
region 			bigbox block 0 30 0 30 0 ${box_size}
region 			bigbox block 0 30 0 30 0 30
create_box 		1 bigbox
Created orthogonal box = (0.0000000 0.0000000 0.0000000) to (30.000000 30.000000 30.000000)
  1 by 1 by 1 MPI processor grid

#==================Atoms====================
region 			safezone block 6 9 6 9 6 9 units box
create_atoms 	1 random ${N} ${seed} safezone
create_atoms 	1 random 6 ${seed} safezone
create_atoms 	1 random 6 200093 safezone
Created 6 atoms
  using lattice units in orthogonal box = (0.0000000 0.0000000 0.0000000) to (30.000000 30.000000 30.000000)
  create_atoms CPU = 0.001 seconds
mass 			* 12.01



#==========Velocity initialization==========
velocity 		all create 0.0000001 1563967 rot yes dist gaussian

#======Pair style for atom interactions=============
pair_style 		airebo 1.8 1 1
pair_coeff 		* * CH.airebo C
Reading airebo potential file CH.airebo with DATE: 2011-10-25

#==============Neighbor selection===================
neighbor 		0.3 bin
neigh_modify 	every 1 delay 0 check yes


#=====================Timestep======================
timestep 		${timestep}
timestep 		0.0001

#===============Define dump command=================
dump 			1 all cfg 100000 ./dump/dump.tensile_*.cfg mass type xs ys zs vx vy vz id

#========System temperature printing info===========
thermo_style 	custom step temp etotal epair pe ke
thermo 			${iexport}
thermo 			1000



#====================CRC Cycle======================

#=============Condensation et chauffe===============
fix 			1 all nve
fix 			2 all temp/berendsen 0.0 ${tempchauf} ${Tdamp}
fix 			2 all temp/berendsen 0.0 3000 ${Tdamp}
fix 			2 all temp/berendsen 0.0 3000 0.001
fix             3 all momentum 1 linear 1 1 1 angular rescale

run 			${iter}
run 			1000000
Neighbor list info ...
  update every 1 steps, delay 0 steps, check yes
  max neighbors/atom: 2000, page size: 100000
  master list distance cutoff = 8.116371
  ghost atom cutoff = 8.116371
  binsize = 4.0581855, bins = 8 8 8
  1 neighbor lists, perpetual/occasional/extra = 1 0 0
  (1) pair airebo, perpetual
      attributes: full, newton on, ghost
      pair build: full/bin/ghost
      stencil: full/ghost/bin/3d
      bin: standard
Per MPI rank memory allocation (min/avg/max) = 5.134 | 5.134 | 5.134 Mbytes
Step Temp TotEng E_pair PotEng KinEng 
       0        1e-07     24.80326     24.80326     24.80326 6.4630073e-11 
    1000    14.410476   -25.510849   -25.520162   -25.520162 0.0093135008 
    2000    18.221006   -26.112134   -26.123911   -26.123911  0.011776249 
    3000    20.617246   -27.384436   -27.397761   -27.397761  0.013324941 
    4000     19.84096   -28.054624   -28.067447   -28.067447  0.012823227 
    5000    21.352563   -28.563352   -28.577152   -28.577152  0.013800177 
    6000    24.290986   -28.987172   -29.002871   -29.002871  0.015699282 
    7000    25.693665   -29.405704    -29.42231    -29.42231  0.016605834 
    8000    23.093334    -29.58431   -29.599236   -29.599236  0.014925239 
    9000    23.850158   -29.532359   -29.547774   -29.547774  0.015414375 
   10000    34.756257   -29.556007    -29.57847    -29.57847  0.022462994 
   11000    32.991249   -29.566671   -29.587993   -29.587993  0.021322268 
   12000    35.796774   -29.563151   -29.586286   -29.586286  0.023135481 
   13000    37.039691   -29.551844   -29.575783   -29.575783  0.023938779 
   14000    38.987936   -29.546641   -29.571839   -29.571839  0.025197932 
   15000    44.921071   -29.549599   -29.578632   -29.578632  0.029032521 
   16000    43.725637   -29.522493   -29.550753   -29.550753  0.028259911 
   17000    53.845344   -29.524387   -29.559187   -29.559187  0.034800285 
   18000    57.271133   -29.483205   -29.520219   -29.520219  0.037014375 
   19000    51.970578   -29.507329   -29.540917   -29.540917  0.033588622 
   20000    54.841543   -29.547891   -29.583335   -29.583335  0.035444129 
   21000    70.677214   -29.477297   -29.522976   -29.522976  0.045678735 
   22000    58.475014   -29.536478    -29.57427    -29.57427  0.037792444 
   23000    76.335969   -29.503117   -29.552453   -29.552453  0.049335992 
   24000    77.099861   -29.501571   -29.551401   -29.551401  0.049829696 
   25000    82.506797   -29.476522   -29.529846   -29.529846  0.053324203 
   26000    74.737075   -29.535896   -29.584199   -29.584199  0.048302626 
   27000     82.48481   -29.488991   -29.542301   -29.542301  0.053309992 
   28000     80.23932   -29.463674   -29.515532   -29.515532  0.051858731 
   29000    86.726907   -29.483504   -29.539555   -29.539555  0.056051663 
   30000    97.172978   -29.503319   -29.566122   -29.566122  0.062802966 
   31000    93.505605   -29.484598   -29.545031   -29.545031   0.06043274 
   32000    94.061228   -29.488617   -29.549409   -29.549409   0.06079184 
   33000    86.908267   -29.494644   -29.550813   -29.550813  0.056168876 
   34000    99.583772   -29.494373   -29.558734   -29.558734  0.064361064 
   35000    98.559038   -29.480134   -29.543833   -29.543833  0.063698778 
   36000    112.35758   -29.450774   -29.523391   -29.523391  0.072616785 
   37000    107.88457   -29.485896   -29.555621   -29.555621  0.069725874 
   38000     122.1536   -29.417555   -29.496503   -29.496503  0.078947962 
   39000    133.05526   -29.407596   -29.493589   -29.493589  0.085993709 
   40000    112.54084    -29.47084   -29.543575   -29.543575  0.072735225 
   41000    123.48087   -29.468255   -29.548061   -29.548061  0.079805773 
   42000    120.58626   -29.429103   -29.507038   -29.507038   0.07793499 
   43000    113.40349   -29.424038   -29.497331   -29.497331   0.07329276 
   44000    128.87164   -29.411326   -29.494616   -29.494616  0.083289833 
   45000    146.36701   -29.435385   -29.529982   -29.529982  0.094597105 
   46000    126.43971   -29.414864   -29.496582   -29.496582  0.081718078 
   47000    139.06416   -29.346467   -29.436344   -29.436344  0.089877269 
   48000    135.30217   -29.482051   -29.569497   -29.569497  0.087445891 
   49000    142.21538   -29.383975   -29.475889   -29.475889  0.091913906 
   50000    148.32708   -29.408177   -29.504041   -29.504041  0.095863899 
   51000    146.70204   -29.300076   -29.394889   -29.394889  0.094813634 
   52000    149.17661   -29.302902   -29.399315   -29.399315   0.09641295 
   53000    162.20194   -29.384306   -29.489137   -29.489137   0.10483123 
   54000    152.50245   -29.325276   -29.423838   -29.423838  0.098562442 
   55000    160.33582   -29.394216   -29.497841   -29.497841   0.10362516 
   56000    170.36173   -29.364553   -29.474657   -29.474657   0.11010491 
   57000    168.35772   -29.359865   -29.468675   -29.468675   0.10880972 
   58000    193.21669   -29.240429   -29.365305   -29.365305   0.12487608 
   59000    181.51297   -29.260155   -29.377467   -29.377467   0.11731196 
   60000    188.56782   -29.331907   -29.453779   -29.453779   0.12187152 
   61000    185.75393   -29.363359   -29.483412   -29.483412    0.1200529 
   62000    149.27236   -29.161146   -29.257621   -29.257621  0.096474836 
   63000    188.94521   -29.342801   -29.464917   -29.464917   0.12211543 
   64000    187.07549   -29.369982   -29.490889   -29.490889   0.12090702 
   65000    199.32708   -29.400166   -29.528991   -29.528991   0.12882523 
   66000    210.42741   -29.351372   -29.487371   -29.487371   0.13599939 
   67000    185.25093   -29.403213   -29.522941   -29.522941   0.11972781 
   68000    200.08324   -29.339271   -29.468585   -29.468585   0.12931394 
   69000    201.91624   -29.377533   -29.508032   -29.508032   0.13049861 
   70000    210.28539   -29.368991   -29.504898   -29.504898    0.1359076 
   71000    210.30769   -29.279659   -29.415581   -29.415581   0.13592201 
   72000    243.60851   -29.220524   -29.377969   -29.377969   0.15744436 
   73000    230.98695   -29.239803    -29.38909    -29.38909   0.14928703 
   74000    245.04988   -29.368667   -29.527042   -29.527042   0.15837591 
   75000    235.60473   -29.274611   -29.426882   -29.426882   0.15227151 
   76000     206.3785   -29.204399   -29.337782   -29.337782   0.13338257 
   77000    232.53051   -29.264407   -29.414692   -29.414692   0.15028464 
   78000    241.02869   -29.299344   -29.455121   -29.455121   0.15577702 
   79000    229.38781   -29.375047     -29.5233     -29.5233   0.14825351 
   80000    246.24408   -29.232308   -29.391456   -29.391456   0.15914773 
   81000    255.94356   -29.342182   -29.507598   -29.507598   0.16541651 
   82000    264.26569   -29.286018   -29.456813   -29.456813    0.1707951 
   83000    246.16219   -29.337235    -29.49633    -29.49633    0.1590948 
   84000    271.05676   -29.246215     -29.4214     -29.4214   0.17518418 
   85000    253.78319   -29.024141   -29.188161   -29.188161   0.16402026 
   86000    272.29628   -29.151498   -29.327484   -29.327484   0.17598529 
   87000    252.70537   -29.123474   -29.286798   -29.286798   0.16332367 
   88000     270.9947   -29.284213   -29.459357   -29.459357   0.17514407 
   89000    291.05189   -29.164521   -29.352628   -29.352628   0.18810705 
   90000    286.21698   -29.281893   -29.466875   -29.466875   0.18498224 
   91000    260.58857   -29.307297   -29.475715   -29.475715   0.16841858 
   92000    276.61073   -29.157006    -29.33578    -29.33578   0.17877372 
   93000    288.51122   -29.279406   -29.465871   -29.465871   0.18646501 
   94000    308.76318   -29.267426    -29.46698    -29.46698   0.19955386 
   95000    274.23091   -29.253112   -29.430348   -29.430348   0.17723563 
   96000    316.52876   -29.269856   -29.474428   -29.474428   0.20457277 
   97000    280.83679   -29.083565    -29.26507    -29.26507   0.18150502 
   98000    317.75952   -29.301235   -29.506603   -29.506603   0.20536821 
   99000    294.85916   -29.294186   -29.484753   -29.484753   0.19056769 
  100000    294.71355   -29.254745   -29.445218   -29.445218   0.19047358 
  101000    303.76402    -29.26861   -29.464933   -29.464933   0.19632291 
  102000    294.78706   -29.258458   -29.448979   -29.448979   0.19052109 
  103000    330.14577   -29.112076   -29.325449   -29.325449   0.21337345 
  104000    329.41153   -29.254899   -29.467798   -29.467798   0.21289891 
  105000    333.06322   -29.089081    -29.30434    -29.30434     0.215259 
  106000    359.21078    -29.15565   -29.387808   -29.387808   0.23215819 
  107000    343.52408   -29.078897   -29.300917   -29.300917   0.22201986 
  108000    302.01981   -29.241701   -29.436897   -29.436897   0.19519562 
  109000      350.709   -29.025533   -29.252197   -29.252197   0.22666348 
  110000    295.78336    -29.08343   -29.274595   -29.274595     0.191165 
  111000    336.65158   -29.202888   -29.420466   -29.420466   0.21757816 
  112000    337.60086   -29.260081   -29.478273   -29.478273   0.21819168 
  113000    320.28739   -29.156872   -29.363874   -29.363874   0.20700197 
  114000     321.9771   -29.063857   -29.271951   -29.271951   0.20809403 
  115000    366.82858   -28.976739   -29.213821   -29.213821   0.23708158 
  116000     338.8698   -29.111467   -29.330479   -29.330479    0.2190118 
  117000    376.39452   -29.060888   -29.304152   -29.304152   0.24326405 
  118000    363.03222   -29.133899   -29.368527   -29.368527   0.23462799 
  119000    346.89752   -29.215301   -29.439501   -29.439501   0.22420012 
  120000    358.93635   -29.252547   -29.484528   -29.484528   0.23198082 
  121000    339.37609   -29.205802   -29.425141   -29.425141   0.21933901 
  122000    398.01838   -29.214029   -29.471268   -29.471268   0.25723957 
  123000    328.67259   -29.003655   -29.216077   -29.216077   0.21242133 
  124000     365.3927   -29.155796   -29.391949   -29.391949   0.23615356 
  125000    350.03133   -29.038072   -29.264297   -29.264297    0.2262255 
  126000    395.81603   -29.058381   -29.314198   -29.314198   0.25581619 
  127000    367.92985    -29.02607   -29.263863   -29.263863   0.23779333 
  128000    366.66939   -29.045616   -29.282594   -29.282594    0.2369787 
  129000     320.0736   -28.940529   -29.147393   -29.147393    0.2068638 
  130000    385.65648   -28.779574   -29.028825   -29.028825   0.24925006 
  131000    413.88692   -29.228266   -29.495762   -29.495762   0.26749542 
  132000    361.90391   -29.092311    -29.32621    -29.32621   0.23389876 
  133000     401.2381   -29.263364   -29.522685   -29.522685   0.25932048 
  134000    370.92963    -29.08829   -29.328022   -29.328022   0.23973209 
  135000    455.53821   -28.865571   -29.159986   -29.159986   0.29441468 
  136000    381.48715   -28.984909   -29.231465   -29.231465   0.24655542 
  137000    447.14422   -28.914922   -29.203911   -29.203911   0.28898963 
  138000      397.417   -28.978053   -29.234904   -29.234904   0.25685089 
  139000    408.21435   -29.098224   -29.362053   -29.362053   0.26382923 
  140000     420.5188   -28.985379   -29.257161   -29.257161   0.27178161 
  141000    438.02602   -28.849874   -29.132971   -29.132971   0.28309653 
  142000    420.86923   -28.969001   -29.241009   -29.241009   0.27200809 
  143000    444.99635   -29.057821   -29.345423   -29.345423   0.28760147 
  144000    465.84504   -29.022205   -29.323281   -29.323281   0.30107599 
  145000    424.26629   -29.012169   -29.286373   -29.286373   0.27420361 
  146000    425.27224   -29.049694   -29.324548   -29.324548   0.27485375 
  147000    409.90369   -28.971045   -29.235966   -29.235966   0.26492105 
  148000    452.59644   -29.157906    -29.45042    -29.45042   0.29251341 
  149000    430.44387   -28.937366   -29.215562   -29.215562   0.27819619 
  150000    433.37469   -28.647094   -28.927185   -28.927185   0.28009038 
  151000    464.45854   -29.035274   -29.335454   -29.335454   0.30017989 
  152000    450.07734   -28.965009   -29.255895   -29.255895   0.29088531 
  153000    419.33115   -28.777476    -29.04849    -29.04849   0.27101403 
  154000     489.1997   -28.968288   -29.284459   -29.284459   0.31617012 
  155000    471.36141   -29.098437   -29.403078   -29.403078   0.30464122 
  156000    445.49748   -28.944201   -29.232126   -29.232126   0.28792535 
  157000     509.9553   -28.825869   -29.155454   -29.155454   0.32958448 
  158000     450.2889   -29.091058    -29.38208    -29.38208   0.29102204 
  159000    536.13231   -29.103447   -29.449949   -29.449949    0.3465027 
  160000    429.86974   -29.004013   -29.281839   -29.281839   0.27782513 
  161000    486.21044   -29.012882    -29.32712    -29.32712   0.31423816 
  162000    532.03124   -28.982058    -29.32591    -29.32591   0.34385218 
  163000     527.6288   -28.966763    -29.30777    -29.30777   0.34100688 
  164000    556.45507   -28.762737   -29.122374   -29.122374   0.35963732 
  165000    506.17799   -28.675468   -29.002611   -29.002611    0.3271432 
  166000    469.39778   -28.752757   -29.056129   -29.056129   0.30337213 
  167000    462.37223   -29.060463   -29.359295   -29.359295   0.29883151 
  168000    527.61819   -28.820654   -29.161654   -29.161654   0.34100002 
  169000    501.64333   -29.008068   -29.332281   -29.332281   0.32421245 
  170000    507.55393   -28.946687   -29.274719   -29.274719   0.32803247 
  171000    561.30145   -28.517506   -28.880275   -28.880275   0.36276953 
  172000    557.41772    -28.56535    -28.92561    -28.92561   0.36025947 
  173000    547.43519   -28.971382    -29.32519    -29.32519   0.35380776 
  174000     578.5467   -28.813999   -29.187914   -29.187914   0.37391515 
  175000    580.74461   -28.757238   -29.132574   -29.132574   0.37533566 
  176000    684.68343   -28.642235   -29.084747   -29.084747    0.4425114 
  177000    497.55033   -28.898689   -29.220256   -29.220256   0.32156714 
  178000    526.11567    -28.81404   -29.154069   -29.154069   0.34002894 
  179000    526.15829    -29.03771   -29.377767   -29.377767   0.34005648 
  180000    564.76818   -28.452559   -28.817569   -28.817569   0.36501009 
  181000    535.39593   -28.445533    -28.79156    -28.79156   0.34602678 
  182000    577.08576   -28.801073   -29.174044   -29.174044   0.37297094 
  183000    591.23368    -28.86058   -29.242695   -29.242695   0.38211476 
  184000    565.99916   -28.980523   -29.346328   -29.346328   0.36580567 
  185000    520.85871   -28.546842   -28.883473   -28.883473   0.33663136 
  186000     564.9097   -28.805818    -29.17092    -29.17092   0.36510155 
  187000    581.30903   -29.077561   -29.453261   -29.453261   0.37570045 
  188000    595.26497   -28.871092   -29.255812   -29.255812   0.38472018 
  189000    545.58742   -28.824064   -29.176678   -29.176678   0.35261354 
  190000    589.73724   -28.752971   -29.134119   -29.134119   0.38114761 
  191000    564.15727   -28.979373   -29.343988   -29.343988   0.36461525 
  192000    605.43674   -28.976677   -29.367971   -29.367971   0.39129421 
  193000     592.8295   -28.716408   -29.099554   -29.099554   0.38314613 
  194000    553.44062   -28.702521    -29.06021    -29.06021   0.35768907 
  195000    591.47884   -28.831062   -29.213335   -29.213335    0.3822732 
  196000    575.99841   -29.042052    -29.41432    -29.41432   0.37226819 
  197000    612.19416   -28.848833   -29.244495   -29.244495   0.39566153 
  198000    545.33189   -28.638622    -28.99107    -28.99107    0.3524484 
  199000    621.16361   -28.827032    -29.22849    -29.22849   0.40145849 
  200000    612.09304   -28.966791   -29.362387   -29.362387   0.39559617 
  201000    599.47679   -28.961721   -29.349164   -29.349164   0.38744228 
  202000    550.79755   -29.034834   -29.390815   -29.390815   0.35598085 
  203000    609.85049   -28.543422   -28.937569   -28.937569   0.39414681 
  204000    629.75855   -28.801321   -29.208334   -29.208334    0.4070134 
  205000    615.29507   -28.923151   -29.320816   -29.320816   0.39766565 
  206000    593.08994   -28.635497   -29.018811   -29.018811   0.38331446 
  207000     626.6653   -28.481115   -28.886129   -28.886129   0.40501424 
  208000    613.73366   -28.638992   -29.035649   -29.035649   0.39665651 
  209000    606.19546   -28.910166   -29.301951   -29.301951   0.39178457 
  210000    657.65324   -28.466701   -28.891743   -28.891743   0.42504177 
  211000    626.08133    -28.42994   -28.834577   -28.834577   0.40463682 
  212000    640.03478   -29.085878   -29.499533   -29.499533   0.41365494 
  213000    678.23554   -28.405711   -28.844055   -28.844055   0.43834412 
  214000    653.07569   -28.511236   -28.933319   -28.933319   0.42208329 
  215000    612.45335    -28.49762   -28.893449   -28.893449   0.39582904 
  216000    663.77635   -28.985017   -29.414017   -29.414017   0.42899914 
  217000    692.27141   -28.516663   -28.964079   -28.964079   0.44741551 
  218000    643.95726   -28.650942   -29.067132   -29.067132   0.41619004 
  219000    623.20845   -28.776439   -29.179219   -29.179219   0.40278008 
  220000    656.71181   -28.831006   -29.255439   -29.255439   0.42443332 
  221000    680.32202   -28.899123   -29.338816   -29.338816   0.43969262 
  222000    677.75032   -28.402651   -28.840681   -28.840681   0.43803052 
  223000    595.56198   -28.423721   -28.808633   -28.808633   0.38491214 
  224000    682.75339   -28.933417   -29.374681   -29.374681   0.44126401 
  225000    625.27593   -28.361458   -28.765575   -28.765575   0.40411628 
  226000    630.71519   -28.476425   -28.884057   -28.884057   0.40763168 
  227000    710.89758   -28.723126    -29.18258    -29.18258   0.45945362 
  228000    745.82565   -28.615133   -29.097161   -29.097161   0.48202766 
  229000    740.07722   -28.448571   -28.926883   -28.926883   0.47831245 
  230000    663.07329   -28.546799   -28.975344   -28.975344   0.42854475 
  231000    696.29145   -28.659923   -29.109936   -29.109936   0.45001367 
  232000    688.98383   -28.481562   -28.926853   -28.926853   0.44529075 
  233000    694.33499    -28.63526   -29.084009   -29.084009   0.44874921 
  234000     733.2985   -28.703865   -29.177796   -29.177796   0.47393136 
  235000    691.68955   -28.250988   -28.698027   -28.698027   0.44703946 
  236000    684.73848   -28.658821   -29.101368   -29.101368   0.44254698 
  237000    700.03367   -28.823968     -29.2764     -29.2764   0.45243227 
  238000    739.55278   -28.446732   -28.924706   -28.924706    0.4779735 
  239000    781.90987    -28.37435   -28.879699   -28.879699   0.50534891 
  240000    643.68532   -28.777841   -29.193856   -29.193856   0.41601429 
  241000    699.84506   -28.654062   -29.106372   -29.106372   0.45231037 
  242000    676.75005    -28.44782   -28.885204   -28.885204   0.43738405 
  243000    655.84561   -28.588823   -29.012697   -29.012697   0.42387349 
  244000    670.39989   -28.410771   -28.844051   -28.844051   0.43327994 
  245000    704.80672   -28.730006   -29.185523   -29.185523   0.45551709 
  246000    763.40497   -28.542429   -29.035818   -29.035818   0.49338919 
  247000    668.01999   -28.605682   -29.037424   -29.037424    0.4317418 
  248000    744.27422   -28.526203   -29.007228   -29.007228   0.48102497 
  249000    777.39817   -28.809584   -29.312017   -29.312017     0.502433 
  250000    775.94737   -28.425426   -28.926922   -28.926922   0.50149535 
  251000    752.01779   -28.635139   -29.121169   -29.121169   0.48602965 
  252000    751.59101   -28.764223   -29.249977   -29.249977   0.48575382 
  253000    810.13727   -28.433362   -28.956955   -28.956955   0.52359231 
  254000    757.80155   -28.456485   -28.946253   -28.946253   0.48976769 
  255000    818.74969   -28.485154   -29.014313   -29.014313   0.52915852 
  256000    779.04793   -28.401193   -28.904692   -28.904692   0.50349924 
  257000    749.95013    -28.37721   -28.861903   -28.861903   0.48469332 
  258000    720.69957    -28.58469   -29.050479   -29.050479   0.46578865 
  259000     778.6784   -28.324224   -28.827485   -28.827485   0.50326041 
  260000    762.81006   -28.326567   -28.819572   -28.819572   0.49300469 
  261000    772.46613   -28.416013   -28.915258   -28.915258   0.49924542 
  262000    779.56689   -28.667472   -29.171307   -29.171307   0.50383465 
  263000    797.44183   -28.489503    -29.00489    -29.00489   0.51538724 
  264000    811.44381   -28.917511   -29.441948   -29.441948   0.52443672 
  265000     801.1474   -28.542599   -29.060381   -29.060381   0.51778215 
  266000    785.52569   -28.371377   -28.879063   -28.879063   0.50768582 
  267000    766.84406    -28.40032   -28.895932   -28.895932   0.49561187 
  268000    865.73369   -28.678241   -29.237765   -29.237765   0.55952431 
  269000    852.56195    -28.29267   -28.843681   -28.843681   0.55101141 
  270000    873.93867   -28.409912    -28.97474    -28.97474    0.5648272 
  271000      879.491   -28.692172   -29.260588   -29.260588   0.56841567 
  272000    810.26694   -28.070776   -28.594452   -28.594452   0.52367611 
  273000    789.24292   -28.601002    -29.11109    -29.11109   0.51008827 
  274000    827.58023   -28.652942   -29.187808   -29.187808    0.5348657 
  275000    764.99585   -28.210327   -28.704745   -28.704745   0.49441737 
  276000    865.79341   -28.603698   -29.163261   -29.163261   0.55956291 
  277000    890.91266   -28.364183   -28.939981   -28.939981    0.5757975 
  278000    742.10866   -27.895895   -28.375521   -28.375521   0.47962537 
  279000     773.8966   -28.450048   -28.950218   -28.950218   0.50016993 
  280000    835.04482   -28.707643   -29.247333   -29.247333   0.53969007 
  281000    824.24073   -28.640195   -29.172902   -29.172902   0.53270738 
  282000    887.95395   -28.624618   -29.198503   -29.198503   0.57388528 
  283000    864.37123    -28.04871   -28.607354   -28.607354   0.55864375 
  284000    833.13084   -28.261989   -28.800442   -28.800442   0.53845307 
  285000    930.39399   -28.424179   -29.025494   -29.025494   0.60131431 
  286000    862.56751   -28.083884   -28.641362   -28.641362   0.55747801 
  287000    828.96958   -28.518891   -29.054655   -29.054655   0.53576364 
  288000    952.61823   -28.082126   -28.697803   -28.697803   0.61567785 
  289000    805.19608   -28.245498   -28.765897   -28.765897   0.52039881 
  290000    848.47859   -28.379869   -28.928241   -28.928241   0.54837233 
  291000    797.06648   -28.249043   -28.764188   -28.764188   0.51514465 
  292000    896.25845   -28.269751   -28.849004   -28.849004   0.57925248 
  293000    896.31939   -28.755462   -29.334754   -29.334754   0.57929187 
  294000    893.70521    -28.28125   -28.858852   -28.858852   0.57760232 
  295000    807.59257    -28.18974   -28.711688   -28.711688   0.52194766 
  296000    911.70875   -28.650001    -29.23924    -29.23924   0.58923803 
  297000    820.72149   -27.728397    -28.25883    -28.25883   0.53043289 
  298000    852.26746   -28.316865   -28.867686   -28.867686   0.55082108 
  299000    888.64252   -28.476692   -29.051022   -29.051022   0.57433031 
  300000    841.58436   -28.164462   -28.708378   -28.708378   0.54391658 
  301000    925.79933   -28.479301   -29.077646   -29.077646   0.59834478 
  302000    858.89241   -28.749718    -29.30482    -29.30482   0.55510279 
  303000    921.50148    -28.43379   -29.029358   -29.029358   0.59556707 
  304000     992.5462   -28.059754   -28.701237   -28.701237   0.64148333 
  305000    921.42245   -28.452705   -29.048221   -29.048221     0.595516 
  306000    872.47534   -28.582964   -29.146845   -29.146845   0.56388145 
  307000    931.74801   -28.184851   -28.787041   -28.787041   0.60218941 
  308000    892.66448   -28.121348   -28.698278   -28.698278    0.5769297 
  309000    883.16887   -28.185329   -28.756122   -28.756122   0.57079268 
  310000    961.95017    -27.77469   -28.396399   -28.396399   0.62170909 
  311000    931.86654   -28.130951   -28.733217   -28.733217   0.60226602 
  312000     930.1013   -28.692219   -29.293345   -29.293345   0.60112515 
  313000    1035.7329   -28.017331   -28.686726   -28.686726   0.66939492 
  314000    933.46586   -28.127847   -28.731146   -28.731146   0.60329966 
  315000    996.50057   -28.573699   -29.217738   -29.217738   0.64403904 
  316000    915.00775   -27.731861   -28.323231   -28.323231   0.59137017 
  317000    901.47903   -28.783055   -29.365681   -29.365681   0.58262655 
  318000    928.76473   -28.196797   -28.797058   -28.797058   0.60026132 
  319000    925.46869   -28.088344   -28.686475   -28.686475   0.59813109 
  320000    1009.3622    -28.63734   -29.289691   -29.289691   0.65235155 
  321000    1031.5287    -27.90994   -28.576618   -28.576618   0.66667775 
  322000     957.6171   -28.523939   -29.142848   -29.142848   0.61890862 
  323000    977.38542   -28.203596   -28.835281   -28.835281    0.6316849 
  324000    987.12798    -28.06949   -28.707471   -28.707471   0.63798153 
  325000    975.78945   -28.670368   -29.301021   -29.301021   0.63065343 
  326000    1022.4798    -27.95332   -28.614149   -28.614149   0.66082942 
  327000    971.06737   -28.503039    -29.13064    -29.13064   0.62760155 
  328000    955.65691   -28.167659   -28.785301   -28.785301   0.61764175 
  329000    954.85454   -28.132208   -28.749331   -28.749331   0.61712318 
  330000    959.22511   -28.526055   -29.146003   -29.146003   0.61994789 
  331000    988.93905   -27.771919   -28.411071   -28.411071   0.63915202 
  332000    980.04308   -28.406217    -29.03962    -29.03962   0.63340255 
  333000    1039.4536   -28.339311    -29.01111    -29.01111   0.67179959 
  334000    969.40233   -28.132823   -28.759349   -28.759349   0.62652543 
  335000      1067.68   -28.365592   -29.055634   -29.055634   0.69004237 
  336000    971.70139   -28.110118    -28.73813    -28.73813   0.62801131 
  337000     1009.864   -28.529129   -29.181805   -29.181805   0.65267587 
  338000    986.28206   -27.974818   -28.612253   -28.612253   0.63743481 
  339000    1024.5696   -28.138064   -28.800244   -28.800244   0.66218004 
  340000    1047.8558      -28.405    -29.08223    -29.08223   0.67722996 
  341000    1035.8325   -27.999495   -28.668955   -28.668955   0.66945928 
  342000    1044.8742   -28.323086   -28.998389   -28.998389   0.67530297 
  343000    1054.1305   -28.032457   -28.713743   -28.713743   0.68128531 
  344000    1054.5442   -28.287682   -28.969235   -28.969235   0.68155269 
  345000    1024.6736    -28.21118   -28.873427   -28.873427   0.66224731 
  346000    1036.1486   -28.138449   -28.808113   -28.808113   0.66966361 
  347000    1051.9825   -28.415727   -29.095624   -29.095624   0.67989703 
  348000    1082.8851   -28.122202   -28.822072   -28.822072   0.69986943 
  349000    1035.4655    -28.40497   -29.074192   -29.074192   0.66922211 
  350000    1120.4109   -27.901848   -28.625971   -28.625971   0.72412235 
  351000    1079.5178   -28.187646   -28.885339   -28.885339   0.69769316 
  352000    1106.1488   -28.253717   -28.968622   -28.968622   0.71490476 
  353000    1114.3345   -28.071541   -28.791736   -28.791736   0.72019518 
  354000    1032.8488   -28.459623   -29.127154   -29.127154   0.66753094 
  355000    1055.9061   -27.912706   -28.595139   -28.595139   0.68243287 
  356000    1021.7732   -28.190914   -28.851287   -28.851287   0.66037279 
  357000    1084.0797   -28.297849   -28.998491   -28.998491   0.70064149 
  358000    1009.9974   -27.749353   -28.402115   -28.402115   0.65276204 
  359000     1071.512   -28.242843   -28.935362   -28.935362   0.69251897 
  360000    1068.8964   -28.073928   -28.764757   -28.764757   0.69082855 
  361000    1018.0807   -27.724841   -28.382827   -28.382827   0.65798628 
  362000    1027.0224   -28.279449   -28.943215   -28.943215   0.66376534 
  363000    1081.5961   -28.353381   -29.052417   -29.052417   0.69903635 
  364000    1048.6011   -27.931114   -28.608826   -28.608826   0.67771166 
  365000    1067.9422   -28.372281   -29.062493   -29.062493   0.69021181 
  366000    1049.3154   -27.799969   -28.478143   -28.478143   0.67817329 
  367000     1087.578   -28.159835   -28.862737   -28.862737   0.70290247 
  368000    1144.5198   -28.238039   -28.977743   -28.977743   0.73970395 
  369000    1061.0862   -27.854494   -28.540275   -28.540275   0.68578081 
  370000    1078.8693   -28.542691   -29.239965   -29.239965   0.69727403 
  371000    1162.6213   -27.789709   -28.541112   -28.541112   0.75140298 
  372000    1117.9863   -28.164711   -28.887266   -28.887266   0.72255536 
  373000    1095.1628   -28.106353   -28.814157   -28.814157    0.7078045 
  374000    1119.6361   -28.099356   -28.822977   -28.822977   0.72362162 
  375000    1107.5522   -28.286391   -29.002202   -29.002202    0.7158118 
  376000    1118.8178    -27.97975   -28.702843   -28.702843   0.72309275 
  377000    1126.7948   -28.275298   -29.003546   -29.003546   0.72824831 
  378000    1113.5234   -27.991985   -28.711656   -28.711656   0.71967096 
  379000    1206.7935   -27.933836   -28.713787   -28.713787   0.77995152 
  380000    1131.8925   -28.294526   -29.026069   -29.026069   0.73154296 
  381000    1072.4158   -27.897618   -28.590721   -28.590721   0.69310308 
  382000    1118.8903   -28.234007   -28.957147   -28.957147   0.72313962 
  383000    1140.4351   -27.909732   -28.646796   -28.646796   0.73706405 
  384000    1102.4362   -28.065434   -28.777939   -28.777939   0.71250528 
  385000    1131.9973    -28.28955   -29.021161   -29.021161   0.73161071 
  386000     1207.428   -28.063405   -28.843767   -28.843767   0.78036159 
  387000    1190.0013    -27.94772   -28.716819   -28.716819   0.76909873 
  388000     1159.575   -28.156218   -28.905652   -28.905652   0.74943416 
  389000    1255.4906   -27.887038   -28.698462   -28.698462   0.81142449 
  390000    1112.1169   -28.283141   -29.001903   -29.001903   0.71876198 
  391000    1148.0096   -28.122365   -28.864325   -28.864325   0.74195946 
  392000    1159.6529   -27.848295   -28.597779   -28.597779   0.74948451 
  393000    1199.0301   -28.107534   -28.882468   -28.882468   0.77493399 
  394000    1167.0878   -27.694052   -28.448342   -28.448342   0.75428971 
  395000    1181.6671   -28.238763   -29.002475   -29.002475   0.76371228 
  396000    1231.2963   -27.838727   -28.634514   -28.634514    0.7957877 
  397000    1131.0319   -27.864985   -28.595972   -28.595972   0.73098673 
  398000    1113.6826   -28.110222   -28.829996   -28.829996   0.71977386 
  399000    1203.4896   -28.056326   -28.834142   -28.834142   0.77781621 
  400000    1163.5155   -28.058436   -28.810417   -28.810417   0.75198088 
  401000     1351.242   -27.608824   -28.482132   -28.482132   0.87330866 
  402000    1208.4371   -28.003337   -28.784351   -28.784351   0.78101375 
  403000    1179.1723   -28.112221   -28.874321   -28.874321   0.76209993 
  404000    1247.3142   -27.692787   -28.498927   -28.498927   0.80614009 
  405000    1171.1335   -28.303976   -29.060881   -29.060881   0.75690442 
  406000    1152.9651   -27.956142   -28.701305   -28.701305   0.74516216 
  407000    1199.3775   -28.118913   -28.894071   -28.894071   0.77515854 
  408000    1191.2677   -28.103195   -28.873112   -28.873112   0.76991716 
  409000    1342.8713    -27.84779   -28.715689   -28.715689   0.86789869 
  410000    1252.3635   -28.129896   -28.939299   -28.939299   0.80940345 
  411000    1263.6031   -28.131245   -28.947912   -28.947912   0.81666761 
  412000    1231.1929   -27.958287   -28.754008   -28.754008   0.79572084 
  413000     1193.794   -28.055509   -28.827059   -28.827059   0.77154996 
  414000    1254.9329   -27.804429   -28.615493   -28.615493   0.81106407 
  415000    1232.0068   -28.111806   -28.908053   -28.908053    0.7962469 
  416000    1296.7867   -27.651689   -28.489803   -28.489803   0.83811421 
  417000     1258.975   -28.143137   -28.956813   -28.956813   0.81367644 
  418000    1231.9032   -27.915583   -28.711763   -28.711763   0.79617991 
  419000    1301.1583   -28.019775   -28.860714   -28.860714   0.84093958 
  420000    1224.5418   -27.977347   -28.768769   -28.768769   0.79142226 
  421000    1272.7564   -27.889584   -28.712168   -28.712168   0.82258341 
  422000     1313.989   -28.141836   -28.991068   -28.991068   0.84923205 
  423000    1279.9883   -27.822531   -28.649788   -28.649788   0.82725735 
  424000    1285.5369   -28.104498   -28.935341   -28.935341   0.83084343 
  425000    1283.5655   -28.025165   -28.854734   -28.854734   0.82956934 
  426000    1277.1248    -28.02414   -28.849546   -28.849546   0.82540666 
  427000    1233.3465   -27.832783   -28.629896   -28.629896   0.79711276 
  428000    1313.1846    -28.10624   -28.954952   -28.954952   0.84871215 
  429000    1259.8844   -27.860555   -28.674819   -28.674819   0.81426422 
  430000    1265.9531   -27.886982   -28.705168   -28.705168   0.81818641 
  431000    1330.9044   -28.085485   -28.945649   -28.945649   0.86016446 
  432000    1270.3476   -27.743514    -28.56454    -28.56454   0.82102659 
  433000    1281.2864   -28.045438   -28.873534   -28.873534   0.82809635 
  434000    1293.7299   -27.988201    -28.82434    -28.82434    0.8361386 
  435000    1363.7454   -28.021015   -28.902405   -28.902405   0.88138964 
  436000    1269.8304   -27.984188    -28.80488    -28.80488   0.82069229 
  437000    1342.2126     -27.8222   -28.689673   -28.689673   0.86747299 
  438000    1322.0092   -28.194508   -29.048924   -29.048924   0.85441551 
  439000    1292.5871   -27.717358   -28.552758   -28.552758   0.83539999 
  440000    1285.8498   -28.027628   -28.858674   -28.858674   0.83104567 
  441000    1314.5648   -27.737521   -28.587125   -28.587125    0.8496042 
  442000    1316.6028   -27.746028   -28.596949   -28.596949   0.85092134 
  443000    1302.7715   -28.001369   -28.843351   -28.843351   0.84198219 
  444000    1328.4852   -27.766697   -28.625298   -28.625298   0.85860094 
  445000    1390.5502    -27.98219   -28.880903   -28.880903   0.89871362 
  446000    1291.0309   -27.925635    -28.76003    -28.76003   0.83439423 
  447000    1370.9551   -27.877981   -28.764031   -28.764031    0.8860493 
  448000    1347.2514   -27.985425   -28.856154   -28.856154   0.87072955 
  449000    1331.3659   -28.091911   -28.952374   -28.952374   0.86046274 
  450000    1366.5778   -27.667927   -28.551147   -28.551147   0.88322025 
  451000    1330.4657   -28.193691   -29.053572   -29.053572   0.85988097 
  452000    1300.2481   -27.658395   -28.498746   -28.498746   0.84035132 
  453000    1368.2157   -27.787488   -28.671767   -28.671767   0.88427883 
  454000    1356.2595   -28.088142   -28.964694   -28.964694   0.87655151 
  455000    1300.4306   -27.434534   -28.275003   -28.275003   0.84046924 
  456000    1396.7148    -28.06806   -28.970757   -28.970757   0.90269779 
  457000    1348.8086   -27.497349   -28.369085   -28.369085   0.87173599 
  458000    1348.6331   -27.704544   -28.576166   -28.576166   0.87162258 
  459000    1392.8289   -28.056734   -28.956921   -28.956921   0.90018632 
  460000     1356.694   -27.546744   -28.423577   -28.423577   0.87683234 
  461000    1379.1667    -27.90577   -28.797126   -28.797126   0.89135644 
  462000    1418.2776   -27.974154   -28.890788   -28.890788   0.91663382 
  463000    1455.1404   -27.567019   -28.507478   -28.507478   0.94045829 
  464000    1365.7194   -27.957505    -28.84017    -28.84017   0.88266546 
  465000    1384.2057   -27.830685   -28.725298   -28.725298   0.89461318 
  466000    1472.7768   -27.987719   -28.939576   -28.939576   0.95185668 
  467000     1359.655   -27.841468   -28.720214   -28.720214   0.87874599 
  468000    1467.2675   -27.413662   -28.361958   -28.361958   0.94829602 
  469000    1432.5543   -28.027465   -28.953326   -28.953326    0.9258609 
  470000    1361.2695     -27.4267    -28.30649    -28.30649   0.87978948 
  471000    1396.3074   -27.627148   -28.529582   -28.529582   0.90243448 
  472000    1370.7314   -28.189986   -29.075891   -29.075891   0.88590472 
  473000    1339.5663   -26.941979   -27.807742   -27.807742   0.86576264 
  474000    1414.1314   -28.004608   -28.918562   -28.918562   0.91395414 
  475000    1498.2921    -27.58102   -28.549368   -28.549368   0.96834725 
  476000     1450.714   -27.512635   -28.450233   -28.450233   0.93759752 
  477000    1396.2436   -28.152965   -29.055359   -29.055359   0.90239323 
  478000    1447.4709     -27.1541   -28.089602   -28.089602   0.93550152 
  479000    1403.2299   -28.047159   -28.954068   -28.954068   0.90690848 
  480000    1408.0643   -27.778673   -28.688706   -28.688706     0.910033 
  481000    1571.4003   -27.090214   -28.105811   -28.105811    1.0155971 
  482000    1468.7961   -28.202776    -29.15206    -29.15206   0.94928401 
  483000    1370.6385   -27.368356     -28.2542     -28.2542   0.88584466 
  484000    1448.2358   -28.003562   -28.939558   -28.939558   0.93599582 
  485000    1437.2293   -27.296591   -28.225473   -28.225473   0.92888232 
  486000     1469.066   -27.695733   -28.645192   -28.645192   0.94945841 
  487000    1443.3004   -27.885367   -28.818173   -28.818173    0.9328061 
  488000    1429.4139   -27.505793   -28.429624   -28.429624   0.92383122 
  489000    1448.4905   -28.216759    -29.15292    -29.15292   0.93616048 
  490000    1384.2052    -27.36775   -28.262363   -28.262363   0.89461279 
  491000    1425.3579   -27.844238   -28.765447   -28.765447   0.92120982 
  492000    1438.0713   -27.717168   -28.646595   -28.646595    0.9294265 
  493000     1497.763   -27.408387   -28.376392   -28.376392    0.9680053 
  494000    1440.7649   -27.896616   -28.827783   -28.827783   0.93116737 
  495000    1544.8222   -27.212883   -28.211303   -28.211303    0.9984197 
  496000    1635.4861   -27.664109   -28.721125   -28.721125    1.0570159 
  497000    1575.4158   -27.333731   -28.351923   -28.351923    1.0181924 
  498000    1589.5938   -27.237347   -28.264703   -28.264703    1.0273556 
  499000     1399.404   -27.396194    -28.30063    -28.30063   0.90443584 
  500000    1629.2342   -27.369685    -28.42266    -28.42266    1.0529753 
  501000     1506.093   -28.046494   -29.019883   -29.019883     0.973389 
  502000    1516.8256   -27.605184    -28.58551    -28.58551    0.9803255 
  503000    1436.4223   -27.531252   -28.459613   -28.459613   0.92836075 
  504000    1514.3601   -27.669011   -28.647743   -28.647743   0.97873204 
  505000    1568.9846   -27.194537   -28.208573   -28.208573    1.0140359 
  506000    1540.9868   -28.050996   -29.046937   -29.046937   0.99594086 
  507000    1607.3536   -27.200525   -28.239358   -28.239358    1.0388338 
  508000    1503.8818   -27.951402   -28.923362   -28.923362   0.97195987 
  509000      1522.09   -27.887405   -28.871133   -28.871133   0.98372784 
  510000    1521.5524   -27.002959   -27.986339   -27.986339   0.98338042 
  511000    1498.5323   -27.979422   -28.947924   -28.947924   0.96850252 
  512000    1588.6262   -27.719659   -28.746389   -28.746389    1.0267303 
  513000     1508.047   -27.665388   -28.640039   -28.640039   0.97465186 
  514000    1499.6583   -27.817858   -28.787088   -28.787088   0.96923022 
  515000    1611.9394   -27.549262    -28.59106    -28.59106    1.0417976 
  516000    1524.4328   -27.674293   -28.659535   -28.659535   0.98524204 
  517000    1527.9966   -27.840408   -28.827954   -28.827954    0.9875453 
  518000      1560.11   -27.145381   -28.153681   -28.153681    1.0083002 
  519000    1611.4117   -27.573367   -28.614824   -28.614824    1.0414565 
  520000    1580.3678   -27.748487    -28.76988    -28.76988    1.0213929 
  521000    1535.4946     -27.6121   -28.604491   -28.604491    0.9923913 
  522000    1614.2068   -27.915653   -28.958916   -28.958916     1.043263 
  523000    1554.1088   -27.529916   -28.534337   -28.534337    1.0044217 
  524000    1609.2904   -27.818979   -28.859064   -28.859064    1.0400856 
  525000     1582.043    -27.53246   -28.554935   -28.554935    1.0224755 
  526000    1559.0437   -27.789627   -28.797238   -28.797238     1.007611 
  527000    1575.5314   -27.624187   -28.642454   -28.642454    1.0182671 
  528000     1574.907   -27.346449   -28.364313   -28.364313    1.0178635 
  529000    1650.4292    -27.82592   -28.892593   -28.892593    1.0666736 
  530000    1533.0126   -27.497058   -28.487845   -28.487845   0.99078716 
  531000    1620.9909   -27.639217   -28.686865   -28.686865    1.0476476 
  532000    1629.6056   -27.624288   -28.677503   -28.677503    1.0532153 
  533000    1583.4715   -27.694583   -28.717982   -28.717982    1.0233988 
  534000    1622.7765   -27.783944   -28.832746   -28.832746    1.0488016 
  535000    1609.1855   -27.693852    -28.73387    -28.73387    1.0400178 
  536000     1581.298   -27.760205   -28.782199   -28.782199     1.021994 
  537000    1551.6097   -27.219453    -28.22226    -28.22226    1.0028065 
  538000    1631.1537   -27.732218   -28.786434   -28.786434    1.0542158 
  539000    1649.6953   -27.356883   -28.423083   -28.423083    1.0661993 
  540000    1617.9698   -27.611542   -28.657237   -28.657237    1.0456951 
  541000    1665.4765   -27.410376   -28.486775   -28.486775    1.0763987 
  542000    1653.0561   -27.394544   -28.462916   -28.462916    1.0683714 
  543000    1634.7991   -27.637375   -28.693947   -28.693947    1.0565718 
  544000    1598.5262   -27.464135   -28.497264   -28.497264    1.0331287 
  545000    1652.5334   -27.630322   -28.698356   -28.698356    1.0680335 
  546000    1632.1929    -27.50374   -28.558628   -28.558628    1.0548875 
  547000    1665.2962    -27.23929   -28.315572   -28.315572    1.0762821 
  548000    1648.2623   -27.611444   -28.676717   -28.676717    1.0652731 
  549000    1648.5397   -27.364022   -28.429474   -28.429474    1.0654524 
  550000    1670.0503   -27.664146   -28.743501   -28.743501    1.0793547 
  551000    1583.5626   -27.469279   -28.492737   -28.492737    1.0234577 
  552000    1627.3514   -27.731882    -28.78364    -28.78364    1.0517584 
  553000    1644.1288   -27.403412   -28.466013   -28.466013    1.0626016 
  554000    1694.1954   -27.326054   -28.421014   -28.421014    1.0949597 
  555000    1587.9044   -27.548462   -28.574726   -28.574726    1.0262638 
  556000    1641.1172    -27.57929   -28.639945   -28.639945    1.0606552 
  557000    1705.1028   -27.390932   -28.492941   -28.492941    1.1020092 
  558000    1764.3457      -27.498   -28.638298   -28.638298    1.1402979 
  559000    1692.8722    -27.68351   -28.777614   -28.777614    1.0941046 
  560000     1690.595    -27.09636   -28.188992   -28.188992    1.0926327 
  561000    1679.4266   -28.003723   -29.089138   -29.089138    1.0854147 
  562000    1709.0606   -27.335292   -28.439859   -28.439859    1.1045671 
  563000    1697.5544   -27.887253   -28.984383   -28.984383    1.0971306 
  564000    1684.0159   -27.388654   -28.477035   -28.477035    1.0883807 
  565000     1709.488   -27.177854   -28.282697   -28.282697    1.1048433 
  566000    1671.2255   -27.586278   -28.666393   -28.666393    1.0801142 
  567000    1661.0426   -27.180308   -28.253841   -28.253841    1.0735331 
  568000    1687.5359   -27.886911   -28.977567   -28.977567    1.0906557 
  569000    1780.0272   -26.957526   -28.107959   -28.107959    1.1504329 
  570000    1707.6025     -27.7952   -28.898825   -28.898825    1.1036247 
  571000    1645.2457   -27.376116   -28.439439   -28.439439    1.0633235 
  572000     1697.895   -27.277449     -28.3748     -28.3748    1.0973508 
  573000    1688.3764   -27.538572   -28.629771   -28.629771    1.0911989 
  574000    1776.9368   -27.272524   -28.420959   -28.420959    1.1484355 
  575000    1706.8256   -27.547603   -28.650726   -28.650726    1.1031226 
  576000    1730.0003   -27.683388   -28.801488   -28.801488    1.1181005 
  577000    1734.5822   -26.752364   -27.873426   -27.873426    1.1210617 
  578000    1727.0749   -28.061456   -29.177666   -29.177666    1.1162097 
  579000    1687.7592   -26.910883   -28.001683   -28.001683       1.0908 
  580000    1717.4951   -27.796128   -28.906146   -28.906146    1.1100183 
  581000    1745.6242   -27.182551    -28.31075    -28.31075    1.1281982 
  582000    1785.8236   -27.108228   -28.262407   -28.262407    1.1541791 
  583000    1741.5883   -27.680623   -28.806213   -28.806213    1.1255898 
  584000    1716.3261   -27.167375   -28.276638   -28.276638    1.1092628 
  585000    1739.6965   -27.689199   -28.813566   -28.813566    1.1243671 
  586000    1745.0156    -27.36948   -28.497285   -28.497285    1.1278049 
  587000    1769.4274   -27.428505   -28.572087   -28.572087    1.1435822 
  588000    1656.6334   -27.533247    -28.60393    -28.60393    1.0706834 
  589000    1782.1927   -27.363589   -28.515421   -28.515421    1.1518324 
  590000    1785.6423   -27.313309   -28.467371   -28.467371    1.1540619 
  591000    1648.6269   -27.382593   -28.448102   -28.448102    1.0655087 
  592000    1787.1059   -27.407522   -28.562529   -28.562529    1.1550078 
  593000    1833.6973   -27.141186   -28.326306   -28.326306    1.1851199 
  594000    1743.4444   -27.656793   -28.783582   -28.783582    1.1267894 
  595000    1785.4908   -27.598865   -28.752829   -28.752829     1.153964 
  596000    1827.2141   -27.062957   -28.243887   -28.243887    1.1809298 
  597000    1796.0865   -27.791837   -28.952649   -28.952649     1.160812 
  598000    1784.2294   -26.903443   -28.056591   -28.056591    1.1531487 
  599000    1809.2933   -27.411714   -28.581061   -28.581061    1.1693476 
  600000    1764.9014    -27.09609   -28.236747   -28.236747     1.140657 
  601000    1859.2858   -27.288159   -28.489817   -28.489817    1.2016578 
  602000    1865.9147   -27.678289   -28.884231   -28.884231     1.205942 
  603000    1839.0499   -27.150349   -28.338928   -28.338928    1.1885793 
  604000    1823.3743   -27.760277   -28.938725   -28.938725    1.1784482 
  605000    1909.5461   -26.966672   -28.200813   -28.200813     1.234141 
  606000    1805.0355   -27.657367   -28.823963   -28.823963    1.1665958 
  607000     1795.674   -27.237494   -28.398039   -28.398039    1.1605454 
  608000    1755.6789   -27.055748   -28.190445   -28.190445    1.1346965 
  609000    1768.5769   -27.044108   -28.187141   -28.187141    1.1430325 
  610000    1905.5945   -26.983028   -28.214615   -28.214615    1.2315871 
  611000    1780.1232   -27.428559   -28.579054   -28.579054    1.1504949 
  612000    1827.8145   -27.384048   -28.565366   -28.565366    1.1813179 
  613000    1853.5652   -26.898373   -28.096334   -28.096334    1.1979605 
  614000     1810.035   -27.653754   -28.823581   -28.823581    1.1698269 
  615000    1712.8953   -27.140762   -28.247807   -28.247807    1.1070455 
  616000    1862.5537   -27.501188   -28.704958   -28.704958    1.2037698 
  617000    1822.9092   -27.192826   -28.370974   -28.370974    1.1781476 
  618000    1903.6842   -27.350157   -28.580509   -28.580509    1.2303525 
  619000    1746.1202   -27.557698   -28.686217   -28.686217    1.1285187 
  620000    1902.0021   -27.088709   -28.317974   -28.317974    1.2292654 
  621000    1826.9035   -27.420725   -28.601454   -28.601454     1.180729 
  622000    1780.9839   -27.457375   -28.608426   -28.608426    1.1510512 
  623000    1935.9084   -27.201755   -28.452934   -28.452934     1.251179 
  624000    1919.2666   -27.280106   -28.520529   -28.520529    1.2404234 
  625000    1874.6123   -27.332083   -28.543647   -28.543647    1.2115633 
  626000    1874.9792   -27.680558   -28.892358   -28.892358    1.2118004 
  627000    1808.7445   -26.849967    -28.01896    -28.01896    1.1689929 
  628000    1912.8208   -27.418716   -28.654974   -28.654974    1.2362575 
  629000    2051.1172   -27.108021    -28.43366    -28.43366    1.3256385 
  630000    1843.7352   -27.455522    -28.64713    -28.64713    1.1916074 
  631000    1816.4661   -27.138463   -28.312446   -28.312446    1.1739834 
  632000     1894.091   -26.978823   -28.202975   -28.202975    1.2241524 
  633000    1933.7092   -27.446021   -28.695778   -28.695778    1.2497576 
  634000    1886.0157   -27.312652   -28.531586   -28.531586    1.2189333 
  635000    1796.9877   -27.269251   -28.430645   -28.430645    1.1613944 
  636000    1902.6279   -27.154229   -28.383899   -28.383899    1.2296698 
  637000    1811.9417   -27.331274   -28.502333   -28.502333    1.1710592 
  638000    1935.4807    -27.05246   -28.303363   -28.303363    1.2509026 
  639000    1960.2278   -26.414693    -27.68159    -27.68159    1.2668966 
  640000    1846.4113   -27.289482   -28.482819   -28.482819     1.193337 
  641000    1945.4042   -27.158512   -28.415828   -28.415828    1.2573162 
  642000    1989.9399   -27.385899   -28.671999   -28.671999    1.2860996 
  643000    1940.7326   -27.295809   -28.550106   -28.550106    1.2542969 
  644000    2016.1781   -26.955295   -28.258352   -28.258352    1.3030574 
  645000     1943.469   -27.535254   -28.791319   -28.791319    1.2560654 
  646000    1906.0416   -27.099208   -28.331084   -28.331084    1.2318761 
  647000    1907.9135   -26.882452   -28.115538   -28.115538    1.2330859 
  648000    1924.3274   -27.149374   -28.393069   -28.393069    1.2436942 
  649000    1915.7502   -26.815959    -28.05411    -28.05411    1.2381507 
  650000    1943.7103   -27.509117   -28.765338   -28.765338    1.2562213 
  651000    1957.5999   -27.457867   -28.723065   -28.723065    1.2651982 
  652000    2002.4706   -26.488216   -27.782415   -27.782415    1.2941982 
  653000    1926.7657   -27.635847   -28.881117   -28.881117    1.2452701 
  654000    1964.8268   -27.078497   -28.348366   -28.348366     1.269869 
  655000    1931.2703    -26.84699   -28.095172   -28.095172    1.2481814 
  656000    2036.4364   -26.865667   -28.181817   -28.181817    1.3161503 
  657000    2001.4185   -27.319449   -28.612967   -28.612967    1.2935182 
  658000    1952.8447   -26.990803   -28.252928   -28.252928    1.2621249 
  659000    1937.1683   -27.141164   -28.393158   -28.393158    1.2519933 
  660000    1915.1709   -27.587074   -28.824851   -28.824851    1.2377763 
  661000    1844.1442   -27.028058    -28.21993    -28.21993    1.1918717 
  662000    1977.7129   -26.853513    -28.13171    -28.13171    1.2781973 
  663000    1994.3039   -27.055709   -28.344629   -28.344629      1.28892 
  664000    2080.0299   -26.682631   -28.026955   -28.026955    1.3443248 
  665000    2071.4917   -27.544973    -28.88378    -28.88378    1.3388066 
  666000    2009.3474   -26.882156   -28.180799   -28.180799    1.2986427 
  667000    1937.6207   -27.217421   -28.469706   -28.469706    1.2522856 
  668000    2004.9073   -27.179096   -28.474869   -28.474869    1.2957731 
  669000     2033.834   -26.846372    -28.16084    -28.16084    1.3144684 
  670000     1980.132   -27.422131   -28.701892   -28.701892    1.2797607 
  671000    2075.8007   -26.387429    -27.72902    -27.72902    1.3415915 
  672000    2010.7173     -27.1533   -28.452828   -28.452828    1.2995281 
  673000    2135.8161   -26.907841    -28.28822    -28.28822    1.3803795 
  674000    1965.5749   -26.489301   -27.759653   -27.759653    1.2703525 
  675000    2056.0726   -27.243972   -28.572813   -28.572813    1.3288412 
  676000    2088.0039   -26.471658   -27.821137   -27.821137    1.3494784 
  677000    1988.3826   -27.665631   -28.950724   -28.950724    1.2850931 
  678000    2110.4956   -26.504405    -27.86842    -27.86842    1.3640148 
  679000    2000.7639   -27.420543   -28.713638   -28.713638    1.2930952 
  680000    1935.0142   -27.245386   -28.495987   -28.495987    1.2506011 
  681000    2025.3333   -26.926083   -28.235058   -28.235058    1.3089744 
  682000    2177.9916   -26.395486   -27.803124   -27.803124    1.4076375 
  683000    2092.2652   -27.260554   -28.612787   -28.612787    1.3522325 
  684000    2222.0276   -27.238858   -28.674956   -28.674956    1.4360981 
  685000     1947.384   -26.919492   -28.178088   -28.178088    1.2585957 
  686000    2118.5429   -27.211171   -28.580386   -28.580386    1.3692158 
  687000    2127.1217   -27.713679   -29.088439   -29.088439    1.3747603 
  688000    2117.7244   -26.270649   -27.639336   -27.639336    1.3686868 
  689000     2001.477   -27.231591   -28.525147   -28.525147     1.293556 
  690000    2054.6811   -26.237543   -27.565485   -27.565485    1.3279419 
  691000    2160.7266    -26.63005   -28.026529   -28.026529    1.3964792 
  692000    2018.3788   -26.609496   -27.913975   -27.913975    1.3044797 
  693000    2088.8342   -26.206295   -27.556311   -27.556311    1.3500151 
  694000     2111.774   -26.927266   -28.292107   -28.292107    1.3648411 
  695000    1960.9747   -26.297479   -27.564858   -27.564858    1.2673794 
  696000    2045.8008   -27.560264   -28.882467   -28.882467    1.3222025 
  697000    2255.5472    -26.42257   -27.880331   -27.880331    1.4577618 
  698000      2088.67   -27.289514   -28.639423   -28.639423    1.3499089 
  699000    2150.2471   -27.233879   -28.623585   -28.623585    1.3897062 
  700000    2082.3078   -26.365648   -27.711445   -27.711445     1.345797 
  701000    2093.2901   -27.506355    -28.85925    -28.85925    1.3528949 
  702000    2131.0326   -26.275855   -27.653143   -27.653143    1.3772879 
  703000    1927.9908   -27.085139   -28.331201   -28.331201    1.2460618 
  704000    2234.6366    -26.90513   -28.349377   -28.349377    1.4442473 
  705000    2075.3417   -26.612665    -27.95396    -27.95396    1.3412948 
  706000    1972.7246   -27.249388   -28.524361   -28.524361    1.2749734 
  707000     2155.046   -26.654628   -28.047435   -28.047435    1.3928078 
  708000    2193.1498    -27.03662   -28.454054   -28.454054    1.4174343 
  709000    2103.3397   -27.027755   -28.387145   -28.387145      1.35939 
  710000    2144.9516   -27.059707   -28.445991   -28.445991    1.3862838 
  711000    2034.7173   -27.063005   -28.378044   -28.378044    1.3150393 
  712000    2189.9786   -27.117595    -28.53298    -28.53298    1.4153848 
  713000    2154.9677   -27.049743     -28.4425     -28.4425    1.3927572 
  714000    2147.6978   -26.676753   -28.064811   -28.064811    1.3880587 
  715000    2146.6274   -26.910227   -28.297594   -28.297594    1.3873668 
  716000    2164.5575   -27.030015    -28.42897    -28.42897    1.3989551 
  717000    2348.4559   -26.727355   -28.245164   -28.245164    1.5178088 
  718000    2140.8257   -26.872492   -28.256109   -28.256109    1.3836172 
  719000    2176.8496   -26.938048   -28.344947   -28.344947    1.4068995 
  720000    2045.3261   -26.315254    -27.63715    -27.63715    1.3218957 
  721000    2052.2735   -26.763792   -28.090178   -28.090178    1.3263858 
  722000    2053.1626   -26.640072   -27.967033   -27.967033    1.3269605 
  723000    2198.2225   -27.241854   -28.662566   -28.662566    1.4207128 
  724000     2106.732   -26.813839   -28.175422   -28.175422    1.3615824 
  725000    2201.2117   -26.670647   -28.093292   -28.093292    1.4226447 
  726000    2108.1065   -27.190985   -28.553456   -28.553456    1.3624708 
  727000    2189.0052   -26.897127   -28.311882   -28.311882    1.4147557 
  728000    2192.2029   -26.748659   -28.165482   -28.165482    1.4168223 
  729000    2189.5311   -26.744946   -28.160041   -28.160041    1.4150955 
  730000    2184.4565   -27.122117   -28.533932   -28.533932    1.4118158 
  731000    2178.5597   -26.831351   -28.239356   -28.239356    1.4080047 
  732000    2138.9127   -26.882253   -28.264634   -28.264634    1.3823809 
  733000    2111.9143   -27.124793   -28.489725   -28.489725    1.3649318 
  734000    2291.6221   -27.064373    -28.54545    -28.54545     1.481077 
  735000    2153.5516   -26.267753   -27.659595   -27.659595     1.391842 
  736000    2206.9971   -26.997453   -28.423837   -28.423837    1.4263838 
  737000    2264.4253   -26.327071   -27.790571   -27.790571    1.4634997 
  738000    2227.8185    -27.11557    -28.55541    -28.55541    1.4398407 
  739000    2307.0837    -26.97216   -28.463229   -28.463229    1.4910698 
  740000    2148.7336   -26.437546   -27.826274   -27.826274    1.3887281 
  741000     2291.683   -27.145976   -28.627092   -28.627092    1.4811164 
  742000    2282.4095   -26.637591   -28.112714   -28.112714    1.4751229 
  743000    2076.8649   -26.011168   -27.353448   -27.353448    1.3422793 
  744000    2328.7832    -26.68886   -28.193954   -28.193954    1.5050943 
  745000    2313.8339   -27.017803   -28.513236   -28.513236    1.4954325 
  746000    2247.0363   -27.244871   -28.697133   -28.697133    1.4522612 
  747000    2190.4081   -26.581284   -27.996946   -27.996946    1.4156623 
  748000    2271.6206    -26.89898    -28.36713    -28.36713    1.4681501 
  749000    2237.8407   -26.847577   -28.293895   -28.293895     1.446318 
  750000    2299.6851   -26.401034   -27.887322   -27.887322    1.4862882 
  751000    2234.9024   -27.002132   -28.446551   -28.446551    1.4444191 
  752000    2219.2304   -26.456779   -27.891069   -27.891069    1.4342902 
  753000     2290.926   -27.153559   -28.634186   -28.634186    1.4806271 
  754000    2400.7682   -26.643262    -28.19488    -28.19488    1.5516182 
  755000    2275.6433   -26.768105   -28.238855   -28.238855    1.4707499 
  756000    2154.0557   -27.002895   -28.395062   -28.395062    1.3921678 
  757000    2200.2046   -26.445529   -27.867522   -27.867522    1.4219938 
  758000    2279.2709   -27.095231   -28.568325   -28.568325    1.4730945 
  759000    2325.5312   -26.224092   -27.727084   -27.727084    1.5029925 
  760000     2185.037   -27.212381   -28.624573   -28.624573     1.412191 
  761000    2164.1001   -26.452815   -27.851475   -27.851475    1.3986595 
  762000    2302.5948   -26.783551   -28.271719   -28.271719    1.4881687 
  763000    2161.5467   -27.137629   -28.534638   -28.534638    1.3970092 
  764000    2213.1211   -25.927467   -27.357809   -27.357809    1.4303418 
  765000    2375.5903   -26.795796   -28.331142   -28.331142    1.5353457 
  766000    2390.4843   -27.014904   -28.559876   -28.559876    1.5449718 
  767000     2156.941    -25.85732   -27.251353   -27.251353    1.3940326 
  768000    2188.8064   -27.153165   -28.567792   -28.567792    1.4146272 
  769000    2203.0137   -26.211266   -27.635075   -27.635075    1.4238094 
  770000    2365.2805   -26.772766   -28.301449   -28.301449    1.5286825 
  771000    2362.1991   -26.636273   -28.162964   -28.162964     1.526691 
  772000    2207.0675   -26.767774   -28.194203   -28.194203    1.4264293 
  773000    2268.8928   -26.443707   -27.910094   -27.910094     1.466387 
  774000    2296.5509   -26.311265   -27.795527   -27.795527    1.4842625 
  775000    2413.7624   -27.185042   -28.745058   -28.745058    1.5600164 
  776000    2434.4173   -26.144394    -27.71776    -27.71776    1.5733657 
  777000    2060.6751   -26.689777   -28.021593   -28.021593    1.3318158 
  778000    2415.6965    -26.94816   -28.509427   -28.509427    1.5612664 
  779000    2359.5756    -25.82044   -27.345435   -27.345435    1.5249954 
  780000    2334.1493   -27.081127    -28.58969    -28.58969    1.5085624 
  781000    2397.4867   -26.415133    -27.96463    -27.96463    1.5494974 
  782000    2175.6906   -26.663051   -28.069202   -28.069202    1.4061504 
  783000    2206.7916   -27.034753   -28.461004   -28.461004     1.426251 
  784000    2539.1687    -25.21816   -26.859227   -26.859227    1.6410666 
  785000    2273.2484    -27.04338   -28.512582   -28.512582    1.4692021 
  786000    2330.6103   -26.746767   -28.253042   -28.253042    1.5062751 
  787000    2225.6589   -26.310264   -27.748709   -27.748709    1.4384449 
  788000    2466.6695   -27.023161   -28.617372   -28.617372    1.5942103 
  789000    2403.0213   -26.328632   -27.881707   -27.881707    1.5530744 
  790000     2342.639   -27.122675   -28.636724   -28.636724    1.5140493 
  791000      2562.97   -26.660893   -28.317343   -28.317343    1.6564494 
  792000    2313.6728   -26.549304   -28.044633   -28.044633    1.4953284 
  793000    2346.2749   -26.744857   -28.261256   -28.261256    1.5163992 
  794000    2407.7529   -26.455538    -28.01167    -28.01167    1.5561325 
  795000    2459.4894   -26.805817   -28.395387   -28.395387    1.5895698 
  796000    2444.1706   -26.914041    -28.49371    -28.49371    1.5796692 
  797000    2391.2087   -26.678975   -28.224415   -28.224415    1.5454399 
  798000    2303.7526   -26.433408   -27.922325   -27.922325     1.488917 
  799000     2427.321   -26.755902   -28.324681   -28.324681    1.5687793 
  800000    2380.8475    -26.35525   -27.893993   -27.893993    1.5387435 
  801000    2449.2344     -27.4616   -29.044542   -29.044542     1.582942 
  802000    2555.4983   -25.371789   -27.023409   -27.023409    1.6516204 
  803000    2296.0889   -27.091073   -28.575037   -28.575037    1.4839639 
  804000    2354.6636   -26.390323   -27.912144   -27.912144    1.5218208 
  805000    2493.1888   -26.280388   -27.891738   -27.891738    1.6113497 
  806000    2442.1014   -26.782977   -28.361309   -28.361309    1.5783319 
  807000    2324.0702   -26.516733   -28.018782   -28.018782    1.5020483 
  808000    2437.6104    -26.73719   -28.312619   -28.312619    1.5754293 
  809000    2412.5558   -25.953065   -27.512301   -27.512301    1.5592366 
  810000    2373.5932   -27.206834   -28.740889   -28.740889     1.534055 
  811000    2468.1013    -26.06101   -27.656146   -27.656146    1.5951357 
  812000    2658.8089   -26.861118   -28.579508   -28.579508    1.7183901 
  813000    2363.6522   -26.677796   -28.205427   -28.205427    1.5276301 
  814000    2444.1155   -26.201847   -27.781481   -27.781481    1.5796336 
  815000    2505.1823   -27.097564   -28.716665   -28.716665    1.6191011 
  816000    2389.6119   -26.351399   -27.895807   -27.895807    1.5444079 
  817000    2375.9513   -26.536579   -28.072158   -28.072158     1.535579 
  818000    2519.6717   -26.787985   -28.416451   -28.416451    1.6284656 
  819000    2532.7071   -25.900741   -27.537631   -27.537631    1.6368905 
  820000    2316.2275   -26.999936   -28.496916   -28.496916    1.4969795 
  821000    2489.9698    -26.15795   -27.767219   -27.767219    1.6092693 
  822000    2341.1008   -27.035158   -28.548213   -28.548213    1.5130551 
  823000    2375.3917   -26.455558   -27.990775   -27.990775    1.5352174 
  824000    2559.7779   -27.084372   -28.738758   -28.738758    1.6543863 
  825000    2492.8852   -26.300819   -27.911973   -27.911973    1.6111535 
  826000    2421.0152   -26.790458   -28.355162   -28.355162    1.5647039 
  827000    2619.9109   -26.113303   -27.806554   -27.806554    1.6932503 
  828000    2422.3635   -25.871457   -27.437033   -27.437033    1.5655753 
  829000    2634.0307   -27.069322   -28.771698   -28.771698     1.702376 
  830000    2530.5281   -25.946856   -27.582338   -27.582338    1.6354822 
  831000    2475.7064   -26.396673   -27.996724   -27.996724    1.6000508 
  832000    2580.9488   -26.786307   -28.454377   -28.454377    1.6680691 
  833000    2739.7323   -26.404953   -28.175644   -28.175644     1.770691 
  834000    2644.6451   -26.610641   -28.319877   -28.319877    1.7092361 
  835000    2521.9257   -25.103902   -26.733825   -26.733825    1.6299224 
  836000    2697.7567   -26.268599   -28.012161   -28.012161    1.7435621 
  837000     2595.794   -26.689327    -28.36699    -28.36699    1.6776635 
  838000     2634.604   -26.791437   -28.494183   -28.494183    1.7027465 
  839000    2449.5384   -26.702727   -28.285865   -28.285865    1.5831385 
  840000    2550.5034   -26.129157   -27.777549   -27.777549    1.6483922 
  841000    2487.6248   -26.687984   -28.295737   -28.295737    1.6077537 
  842000    2441.2905   -26.541301   -28.119109   -28.119109    1.5778078 
  843000    2487.1426   -26.099396   -27.706838   -27.706838     1.607442 
  844000    2552.5622   -25.745828   -27.395551   -27.395551    1.6497228 
  845000    2591.8795   -26.341276   -28.016409   -28.016409    1.6751336 
  846000    2602.3241   -26.367802   -28.049686   -28.049686     1.681884 
  847000    2531.4526   -26.458811   -28.094891   -28.094891    1.6360797 
  848000    2570.3709   -26.321062   -27.982295   -27.982295    1.6612326 
  849000    2400.2979   -25.765078   -27.316392   -27.316392    1.5513143 
  850000    2435.1665   -27.098464   -28.672314   -28.672314    1.5738498 
  851000    2563.9716   -26.308099   -27.965196   -27.965196    1.6570967 
  852000    2578.5884   -26.448647   -28.115191   -28.115191    1.6665435 
  853000    2726.9405   -26.797243   -28.559666   -28.559666    1.7624237 
  854000    2598.1418   -25.692971   -27.372152   -27.372152    1.6791809 
  855000    2701.3663   -25.620249   -27.366144   -27.366144     1.745895 
  856000    2679.2477   -26.888326   -28.619925   -28.619925    1.7315997 
  857000    2606.1866   -25.822574   -27.506955   -27.506955    1.6843803 
  858000    2534.1833   -26.755355   -28.393199   -28.393199    1.6378445 
  859000     2418.051   -26.200346   -27.763134   -27.763134    1.5627881 
  860000    2649.6605   -25.675758   -27.388235   -27.388235    1.7124775 
  861000    2685.0175   -26.638952   -28.374281   -28.374281    1.7353287 
  862000     2683.648   -26.271323   -28.005767   -28.005767    1.7344437 
  863000    2597.5061   -26.683911   -28.362681   -28.362681    1.6787701 
  864000    2412.1186   -26.113929   -27.672883   -27.672883     1.558954 
  865000     2675.429   -26.624206   -28.353338   -28.353338    1.7291317 
  866000    2683.2828   -26.120499   -27.854707   -27.854707    1.7342076 
  867000    2672.8652   -26.995675    -28.72315    -28.72315    1.7274747 
  868000    2822.5145   -25.654781   -27.478975   -27.478975    1.8241932 
  869000    2604.3014   -26.789486   -28.472648   -28.472648    1.6831619 
  870000    2614.7117   -26.157897   -27.847787   -27.847787      1.68989 
  871000     2593.997   -25.678765   -27.355267   -27.355267    1.6765022 
  872000     2743.284   -26.389275   -28.162261   -28.162261    1.7729865 
  873000    2577.5173   -25.820236   -27.486087   -27.486087    1.6658513 
  874000    2574.6097     -26.8124   -28.476372   -28.476372    1.6639721 
  875000    2619.9383   -26.443925   -28.137193   -28.137193     1.693268 
  876000    2427.4452   -26.120431    -27.68929    -27.68929    1.5688596 
  877000    2768.3975   -26.329606   -28.118824   -28.118824    1.7892173 
  878000     2726.278   -25.891776   -27.653771   -27.653771    1.7619955 
  879000    2610.5074   -26.772034   -28.459207   -28.459207    1.6871728 
  880000     2771.599   -25.436258   -27.227544   -27.227544    1.7912864 
  881000    2660.7748    -26.86013    -28.57979    -28.57979    1.7196607 
  882000     2642.234   -25.467202    -27.17488    -27.17488    1.7076777 
  883000    2559.6833   -25.510183   -27.164508   -27.164508    1.6543252 
  884000    2849.8737   -26.760963   -28.602838   -28.602838    1.8418755 
  885000    2632.7989   -26.154865   -27.856445   -27.856445    1.7015798 
  886000    2546.5441   -26.088166      -27.734      -27.734    1.6458333 
  887000    2862.6204   -26.105356    -27.95547    -27.95547    1.8501136 
  888000     2569.574     -25.3599   -27.020617   -27.020617    1.6607176 
  889000    2622.1469   -25.436015    -27.13071    -27.13071    1.6946954 
  890000      2621.87   -26.408447   -28.102963   -28.102963    1.6945165 
  891000    2519.8602   -25.524467   -27.153054   -27.153054    1.6285875 
  892000    2603.7398   -26.954762   -28.637561   -28.637561    1.6827989 
  893000    2645.8092   -25.553021   -27.263009   -27.263009    1.7099884 
  894000    2641.7152   -26.256382   -27.963725   -27.963725    1.7073424 
  895000    2646.6963   -25.944757   -27.655319   -27.655319    1.7105617 
  896000    2811.3967   -25.521476   -27.338483   -27.338483    1.8170077 
  897000    2732.2623   -26.670689   -28.436552   -28.436552    1.7658631 
  898000    2714.0984   -26.191449   -27.945573   -27.945573    1.7541238 
  899000    2851.1957   -26.303744   -28.146474   -28.146474    1.8427299 
  900000    2885.8267   -26.060191   -27.925303   -27.925303    1.8651119 
  901000    2547.4725   -25.726155   -27.372588   -27.372588    1.6464334 
  902000    2842.2198   -26.449093   -28.286022   -28.286022    1.8369287 
  903000    2788.4629   -26.418094    -28.22028    -28.22028    1.8021856 
  904000    2792.3199   -25.638439   -27.443118   -27.443118    1.8046783 
  905000    2731.3087   -26.556982   -28.322229   -28.322229    1.7652468 
  906000    2631.1061   -26.367071   -28.067557   -28.067557    1.7004858 
  907000      2838.24   -26.097871   -27.932227   -27.932227    1.8343566 
  908000    2770.6375   -26.153545    -27.94421    -27.94421     1.790665 
  909000    2737.0704   -25.749387   -27.518357   -27.518357    1.7689706 
  910000    2797.5659   -26.469095   -28.277164   -28.277164    1.8080689 
  911000    2921.8711   -26.258293   -28.146701   -28.146701    1.8884074 
  912000    2733.6424   -25.594999   -27.361754   -27.361754    1.7667551 
  913000    2695.0419   -26.278877   -28.020684   -28.020684    1.7418075 
  914000    2901.1603   -26.492513   -28.367535   -28.367535     1.875022 
  915000    2718.9045   -25.840339   -27.597569   -27.597569      1.75723 
  916000    2663.5604   -26.151432   -27.872893   -27.872893     1.721461 
  917000    2763.8348   -25.833823   -27.620091   -27.620091    1.7862684 
  918000    2673.8703   -26.194112   -27.922237   -27.922237    1.7281243 
  919000    2842.6483   -27.002797   -28.840003   -28.840003    1.8372057 
  920000     2685.527   -25.689631   -27.425289   -27.425289     1.735658 
  921000     2666.504   -26.813151   -28.536514   -28.536514    1.7233635 
  922000    2890.2402    -26.10081   -27.968774   -27.968774    1.8679643 
  923000    2707.6749   -25.363257   -27.113229   -27.113229    1.7499723 
  924000    2718.1295   -26.686477   -28.443206   -28.443206    1.7567291 
  925000    2853.9926   -25.232025   -27.076562   -27.076562    1.8445375 
  926000    2638.8399   -26.219799   -27.925283   -27.925283    1.7054841 
  927000    2698.7771   -26.108238   -27.852459   -27.852459    1.7442216 
  928000    2995.1343   -25.283178   -27.218936   -27.218936    1.9357575 
  929000    2870.4559   -26.040208   -27.895386   -27.895386    1.8551777 
  930000    2888.0686   -26.488945   -28.355506   -28.355506    1.8665608 
  931000    2740.9922   -25.364434    -27.13594    -27.13594    1.7715052 
  932000    2727.5452   -26.738624   -28.501439   -28.501439    1.7628145 
  933000    2677.4419     -26.4984   -28.228833   -28.228833    1.7304326 
  934000    2745.7734   -26.030707   -27.805303   -27.805303    1.7745953 
  935000    2803.6202   -26.356299    -28.16828    -28.16828    1.8119818 
  936000    2668.9298   -26.638885   -28.363816   -28.363816    1.7249312 
  937000    2912.7201   -25.769927    -27.65242    -27.65242    1.8824931 
  938000    2879.0919   -25.408437   -27.269196   -27.269196    1.8607592 
  939000    2813.1161   -25.949766   -27.767885   -27.767885     1.818119 
  940000    2978.6637   -26.457702   -28.382814   -28.382814    1.9251125 
  941000    2779.8266   -25.983793   -27.780396   -27.780396    1.7966039 
  942000    2875.0353   -26.702282    -28.56042    -28.56042    1.8581374 
  943000    2750.3505   -25.359931   -27.137485   -27.137485    1.7775536 
  944000    2753.5335   -26.610523   -28.390134   -28.390134    1.7796107 
  945000    2899.6063   -25.747747   -27.621765   -27.621765    1.8740177 
  946000    2791.0925    -25.21488   -27.018766   -27.018766    1.8038851 
  947000    2796.3574   -25.661008   -27.468296   -27.468296    1.8072878 
  948000    2799.2715   -26.581637   -28.390808   -28.390808    1.8091712 
  949000    3124.1596   -25.693943    -27.71309    -27.71309    2.0191466 
  950000    2689.0183   -26.162601   -27.900515   -27.900515    1.7379145 
  951000    3001.1774   -26.406981   -28.346644   -28.346644    1.9396631 
  952000    2939.5929   -26.096264   -27.996125   -27.996125    1.8998611 
  953000    2681.9707   -26.133067   -27.866427   -27.866427    1.7333596 
  954000    2820.4745   -25.681539   -27.504413   -27.504413    1.8228747 
  955000    2803.0622   -26.486342   -28.297964   -28.297964    1.8116211 
  956000    2991.6019   -25.168554   -27.102028   -27.102028    1.9334745 
  957000    3028.8674   -26.613003   -28.570563   -28.570563    1.9575592 
  958000    2788.3395   -25.721319   -27.523425   -27.523425    1.8021058 
  959000    2904.0961   -26.159597   -28.036516   -28.036516    1.8769194 
  960000    2836.0369   -26.157566   -27.990498   -27.990498    1.8329327 
  961000    3044.6397    -26.30105   -28.268803   -28.268803    1.9677528 
  962000    2681.3989   -25.455482   -27.188472   -27.188472      1.73299 
  963000     2776.836   -26.914097   -28.708769   -28.708769    1.7946711 
  964000    2987.0669   -25.490128   -27.420672   -27.420672    1.9305435 
  965000    2893.7301   -25.830002   -27.700222   -27.700222    1.8702199 
  966000    2820.6701    -26.10939   -27.932391   -27.932391    1.8230011 
  967000    2817.8986   -25.892898   -27.714108   -27.714108    1.8212099 
  968000    2761.3384   -26.663647   -28.448302   -28.448302     1.784655 
  969000    2910.7948   -25.846986   -27.728235   -27.728235    1.8812488 
  970000    3110.2327   -26.275649   -28.285795   -28.285795    2.0101456 
  971000    2985.5899   -26.276922   -28.206511   -28.206511    1.9295889 
  972000    2853.2284   -25.928428   -27.772471   -27.772471    1.8440436 
  973000    2806.3378   -26.292443   -28.106181   -28.106181    1.8137381 
  974000    2667.2678   -25.706891   -27.430748   -27.430748    1.7238571 
  975000    2928.8687   -26.411794   -28.304724   -28.304724      1.89293 
  976000    2992.6673   -25.281048   -27.215211   -27.215211     1.934163 
  977000    2891.2194   -26.105573    -27.97417    -27.97417    1.8685972 
  978000     2957.859   -26.142371   -28.054038   -28.054038    1.9116664 
  979000    2746.6109   -25.660636   -27.435773   -27.435773    1.7751366 
  980000     3011.481   -26.398691   -28.345013   -28.345013    1.9463224 
  981000    3177.6113   -24.672589   -26.726282   -26.726282    2.0536925 
  982000    2900.9342   -26.356123   -28.230999   -28.230999    1.8748759 
  983000    3187.1462   -25.370394   -27.430249   -27.430249    2.0598549 
  984000    2962.4797   -25.516106   -27.430759   -27.430759    1.9146528 
  985000    2994.2946   -26.838275   -28.773489   -28.773489    1.9352147 
  986000    3058.4076   -25.700613   -27.677264   -27.677264     1.976651 
  987000     2854.066   -26.070061   -27.914646   -27.914646     1.844585 
  988000    2870.6286   -26.356372   -28.211662   -28.211662    1.8552894 
  989000    2943.9804   -25.252404     -27.1551     -27.1551    1.9026967 
  990000    2945.2665   -26.239934   -28.143462   -28.143462    1.9035279 
  991000    2833.2638   -25.725945   -27.557085   -27.557085    1.8311405 
  992000     2892.981   -25.860375   -27.730111   -27.730111    1.8697357 
  993000    2937.6451   -25.673712   -27.572315   -27.572315    1.8986022 
  994000    2919.1738   -26.511792   -28.398456   -28.398456    1.8866641 
  995000    2985.8798   -25.869797   -27.799573   -27.799573    1.9297763 
  996000    2929.6646    -25.81294   -27.706385   -27.706385    1.8934444 
  997000    2980.8224   -26.364228   -28.290736   -28.290736    1.9265077 
  998000    2987.8694   -25.821862   -27.752924   -27.752924    1.9310622 
  999000     2805.053    -24.01496   -25.827868   -25.827868    1.8129078 
 1000000    3133.8389   -25.144036   -27.169438   -27.169438    2.0254024 
Loop time of 13.243 on 1 procs for 1000000 steps with 6 atoms

Performance: 652.421 ns/day, 0.037 hours/ns, 75511.743 timesteps/s
98.8% CPU use with 1 MPI tasks x 1 OpenMP threads

MPI task timing breakdown:
Section |  min time  |  avg time  |  max time  |%varavg| %total
---------------------------------------------------------------
Pair    | 10.211     | 10.211     | 10.211     |   0.0 | 77.10
[...]
 1857000       691.96   -30.218455   -30.665669   -30.665669   0.44721425 
 1858000    726.09437   -30.279002   -30.748277   -30.748277   0.46927531 
 1859000    686.37551   -30.005456   -30.449061   -30.449061   0.44360499 
 1860000    765.77568   -30.418317   -30.913239   -30.913239   0.49492138 
 1861000    710.78377   -30.221747   -30.681127   -30.681127   0.45938007 
 1862000    741.09549   -30.650285   -31.129256   -31.129256   0.47897055 
 1863000    675.85851   -30.189311   -30.626119   -30.626119   0.43680785 
 1864000    708.86385    -30.62119    -31.07933    -31.07933   0.45813922 
 1865000    777.12475   -29.585906   -30.088162   -30.088162   0.50225629 
 1866000    668.29312   -30.666315   -31.098234   -31.098234   0.43191833 
 1867000    702.51096   -29.989752   -30.443785   -30.443785   0.45403334 
 1868000    720.36223   -30.479367   -30.944937   -30.944937   0.46557063 
 1869000    693.28643   -30.405655   -30.853727   -30.853727   0.44807152 
 1870000    688.02517   -30.446518   -30.891189   -30.891189   0.44467116 
 1871000    739.31837   -30.477895   -30.955717   -30.955717     0.477822 
 1872000    674.91054    -30.27632   -30.712515   -30.712515   0.43619517 
 1873000    662.84145   -30.349244   -30.777639   -30.777639   0.42839491 
 1874000    644.83329   -30.210389   -30.627146   -30.627146   0.41675622 
 1875000    674.72969    -30.48431   -30.920389   -30.920389   0.43607829 
 1876000    657.94671   -30.159359    -30.58459    -30.58459   0.42523144 
 1877000    649.92822   -30.508677   -30.928726   -30.928726   0.42004908 
 1878000    627.79659   -30.387553   -30.793299   -30.793299   0.40574539 
 1879000    653.53999   -30.535719   -30.958102   -30.958102   0.42238337 
 1880000    715.65157   -30.335963   -30.798489   -30.798489   0.46252613 
 1881000    677.64061   -30.494293   -30.932252   -30.932252   0.43795962 
 1882000    675.36377   -30.368036   -30.804524   -30.804524    0.4364881 
 1883000    638.79964   -30.430202   -30.843059   -30.843059   0.41285667 
 1884000    660.89824   -30.499662   -30.926801   -30.926801   0.42713901 
 1885000    651.47491   -30.385325   -30.806373   -30.806373   0.42104871 
 1886000     689.9589   -30.628708   -31.074628   -31.074628   0.44592094 
 1887000     659.3929   -29.765193   -30.191359   -30.191359   0.42616611 
 1888000    602.38833   -30.559095   -30.948419   -30.948419   0.38932401 
 1889000    625.79123    -30.46008    -30.86453    -30.86453   0.40444932 
 1890000    662.53417   -30.347199   -30.775395   -30.775395   0.42819632 
 1891000    645.43933   -30.365143   -30.782291   -30.782291   0.41714791 
 1892000    632.69727   -30.518976   -30.927888   -30.927888   0.40891271 
 1893000    610.76603   -30.602492   -30.997231   -30.997231   0.39473853 
 1894000    645.52766     -30.2331   -30.650305   -30.650305   0.41720499 
 1895000    636.18482   -30.660078   -31.071244   -31.071244   0.41116671 
 1896000    619.51868   -30.200906   -30.601301   -30.601301   0.40039537 
 1897000    599.80201   -30.659779   -31.047432   -31.047432   0.38765248 
 1898000    615.16611   -30.306569   -30.704151   -30.704151    0.3975823 
 1899000    610.15247   -30.747131   -31.141473   -31.141473   0.39434198 
 1900000    618.46808   -30.327134   -30.726851   -30.726851   0.39971637 
 1901000    545.43781   -30.716002   -31.068519   -31.068519   0.35251685 
 1902000      519.782   -30.052262   -30.388198   -30.388198   0.33593549 
 1903000    585.67712   -30.601557    -30.98008    -30.98008   0.37852355 
 1904000    604.09178   -30.601488   -30.991913   -30.991913   0.39042495 
 1905000    561.01948   -30.335493    -30.69808    -30.69808    0.3625873 
 1906000    601.05297   -30.773501   -31.161962   -31.161962   0.38846097 
 1907000    621.37906    -30.27064   -30.672238   -30.672238   0.40159774 
 1908000    567.47143   -30.573448   -30.940205   -30.940205    0.3667572 
 1909000    598.51535   -30.565836   -30.952657   -30.952657    0.3868209 
 1910000    571.55067   -30.596444   -30.965838   -30.965838   0.36939362 
 1911000    576.77117   -30.510725   -30.883492   -30.883492   0.37276762 
 1912000    593.97119   -30.361526    -30.74541    -30.74541   0.38388401 
 1913000    560.51914   -30.614574   -30.976838   -30.976838   0.36226393 
 1914000    508.51201   -30.324667   -30.653318   -30.653318   0.32865168 
 1915000    571.07716   -30.532532   -30.901619   -30.901619   0.36908758 
 1916000    533.14075   -30.552061   -30.896631   -30.896631   0.34456925 
 1917000    545.79379   -30.278009   -30.630756   -30.630756   0.35274692 
 1918000    514.73603   -30.692828   -31.025502   -31.025502   0.33267427 
 1919000    563.72673   -30.330095   -30.694432   -30.694432   0.36433699 
 1920000    545.18147   -30.614571   -30.966922   -30.966922   0.35235118 
 1921000    506.87307   -30.623838    -30.95143    -30.95143   0.32759243 
 1922000    547.40415   -30.528533   -30.882321   -30.882321    0.3537877 
 1923000    534.20476     -30.7599   -31.105157   -31.105157   0.34525693 
 1924000    501.91556   -30.262309   -30.586697   -30.586697   0.32438839 
 1925000     513.7657   -30.789677   -31.121725   -31.121725   0.33204714 
 1926000    483.88197   -30.167555   -30.480289   -30.480289   0.31273327 
 1927000     538.2706   -30.714016     -31.0619     -31.0619   0.34788468 
 1928000    496.25281    -30.38098   -30.701708   -30.701708   0.32072855 
 1929000    484.13109   -30.730011   -31.042906   -31.042906   0.31289427 
 1930000    539.13596   -30.645692   -30.994136   -30.994136   0.34844396 
 1931000       498.51    -30.67358   -30.995767   -30.995767   0.32218737 
 1932000    449.53905    -30.48292   -30.773457   -30.773457   0.29053741 
 1933000    463.12281   -30.576942   -30.876258   -30.876258   0.29931661 
 1934000     514.7772    -30.69147   -31.024171   -31.024171   0.33270088 
 1935000    497.52191   -30.627665   -30.949213   -30.949213   0.32154877 
 1936000    465.21994   -30.817311   -31.117983   -31.117983   0.30067199 
 1937000    517.21985     -30.4276    -30.76188    -30.76188   0.33427956 
 1938000    476.01977   -30.646698    -30.95435    -30.95435   0.30765192 
 1939000    498.75841   -30.743051   -31.065399   -31.065399   0.32234792 
 1940000    459.23495   -30.611723   -30.908527   -30.908527   0.29680388 
 1941000    508.04195   -30.869038   -31.197385   -31.197385   0.32834788 
 1942000    477.33783   -30.257812   -30.566316   -30.566316   0.30850378 
 1943000    482.69396   -30.768247   -31.080213   -31.080213   0.31196546 
 1944000    472.92118   -30.483976   -30.789626   -30.789626    0.3056493 
 1945000     466.4614    -30.79057   -31.092045   -31.092045   0.30147434 
 1946000    465.08406   -30.424467   -30.725051   -30.725051   0.30058417 
 1947000    432.14102   -30.607669   -30.886963   -30.886963   0.27929305 
 1948000    430.27563   -30.678918   -30.957006   -30.957006   0.27808745 
 1949000     414.9508   -30.694687    -30.96287    -30.96287     0.268183 
 1950000    457.19511   -30.613128   -30.908613   -30.908613   0.29548553 
 1951000    466.00281   -30.598803    -30.89998    -30.89998   0.30117796 
 1952000    410.56948   -30.705498   -30.970849   -30.970849   0.26535135 
 1953000    457.86915     -30.3534   -30.649321   -30.649321   0.29592117 
 1954000    435.74951   -30.716617   -30.998242   -30.998242   0.28162523 
 1955000    456.66103   -30.951576   -31.246717   -31.246717   0.29514035 
 1956000     407.8778    -30.51668   -30.780292   -30.780292   0.26361172 
 1957000    440.75823   -30.662607    -30.94747    -30.94747   0.28486237 
 1958000    413.34257   -30.863784   -31.130927   -31.130927    0.2671436 
 1959000    422.08082   -30.210659    -30.48345    -30.48345   0.27279114 
 1960000    443.02827   -30.918209   -31.204539   -31.204539   0.28632949 
 1961000     455.0021   -30.679138   -30.973206   -30.973206   0.29406819 
 1962000    403.05308   -30.722143   -30.982636   -30.982636    0.2604935 
 1963000    444.56875    -30.60839   -30.895715   -30.895715    0.2873251 
 1964000    359.21522   -30.698776   -30.930937   -30.930937   0.23216106 
 1965000    400.38618   -30.738508   -30.997278   -30.997278   0.25876988 
 1966000    386.93135   -30.643029   -30.893103   -30.893103   0.25007401 
 1967000    397.36172   -30.855039   -31.111855   -31.111855   0.25681517 
 1968000    415.72835   -30.792039   -31.060725   -31.060725   0.26868554 
 1969000     383.5769   -30.684071   -30.931977   -30.931977   0.24790603 
 1970000    375.24558   -30.861339   -31.103861   -31.103861   0.24252149 
 1971000    390.11219   -30.755608   -31.007738   -31.007738   0.25212979 
 1972000    391.77454   -30.810338   -31.063542   -31.063542   0.25320417 
 1973000    397.76009   -30.734046   -30.991118   -30.991118   0.25707263 
 1974000    380.28683   -30.887446   -31.133225   -31.133225   0.24577965 
 1975000     380.8182   -30.820917    -31.06704    -31.06704   0.24612308 
 1976000    376.61649   -30.889122    -31.13253    -31.13253   0.24340751 
 1977000    361.23083   -30.742074   -30.975538   -30.975538   0.23346375 
 1978000    391.08902   -30.935559   -31.188321   -31.188321   0.25276111 
 1979000    362.61904   -30.925001   -31.159362   -31.159362   0.23436095 
 1980000     329.2308   -30.636238    -30.84902    -30.84902   0.21278211 
 1981000    365.31256   -30.943147   -31.179249   -31.179249   0.23610177 
 1982000    335.45811   -30.734911   -30.951717   -30.951717   0.21680682 
 1983000    322.12345   -30.800235   -31.008423   -31.008423   0.20818862 
 1984000    369.49202   -30.927983   -31.166786   -31.166786   0.23880296 
 1985000    294.42183   -30.675771   -30.866056   -30.866056   0.19028504 
 1986000    344.98659   -30.838425    -31.06139    -31.06139   0.22296508 
 1987000    333.09322   -30.770116   -30.985394   -30.985394   0.21527839 
 1988000     301.0483   -30.802763    -30.99733    -30.99733   0.19456774 
 1989000    321.92377   -30.970127   -31.178186   -31.178186   0.20805957 
 1990000    334.27596   -30.761669   -30.977712   -30.977712   0.21604279 
 1991000    321.05057   -31.000669   -31.208164   -31.208164   0.20749521 
 1992000    372.42888   -30.582843   -30.823544   -30.823544   0.24070106 
 1993000    309.95294   -30.943416   -31.143739   -31.143739   0.20032281 
 1994000    308.33261   -30.782161   -30.981436   -30.981436   0.19927559 
 1995000    300.78773   -30.948762   -31.143161   -31.143161   0.19439933 
 1996000    308.93904   -30.879755   -31.079423   -31.079423   0.19966753 
 1997000    315.11499   -30.725665   -30.929324   -30.929324   0.20365905 
 1998000    315.70724   -30.979293   -31.183335   -31.183335   0.20404182 
 1999000    307.33001   -30.793485   -30.992113   -30.992113   0.19862761 
 2000000     309.7368   -31.007214   -31.207397   -31.207397   0.20018312 
 2001000    291.12729   -30.516746   -30.704902   -30.704902   0.18815578 
 2002000    294.99171   -31.046975   -31.237628   -31.237628   0.19065335 
 2003000    267.24866   -30.577444   -30.750167   -30.750167   0.17272301 
 2004000      283.483   -31.034444    -31.21766    -31.21766   0.18321527 
 2005000     259.6138   -30.660974   -30.828762   -30.828762   0.16778859 
 2006000    285.10944   -30.954402   -31.138668   -31.138668   0.18426644 
 2007000    252.89823   -30.809608   -30.973056   -30.973056   0.16344831 
 2008000    260.74226   -31.013387   -31.181904   -31.181904   0.16851791 
 2009000    265.12166   -30.804833   -30.976181   -30.976181   0.17134832 
 2010000    274.65788   -31.070173   -31.247684   -31.247684   0.17751159 
 2011000    270.00842   -30.740394   -30.914901   -30.914901   0.17450664 
 2012000    264.38757   -31.049462   -31.220336   -31.220336   0.17087388 
 2013000    248.96268   -30.919318   -31.080223   -31.080223   0.16090476 
 2014000    242.76524   -30.905021    -31.06192    -31.06192   0.15689935 
 2015000    245.53907   -31.054346   -31.213038   -31.213038   0.15869208 
 2016000    266.93327    -30.85305    -31.02557    -31.02557   0.17251916 
 2017000    256.99447   -31.103474   -31.269569   -31.269569   0.16609571 
 2018000     258.3432    -30.84683   -31.013797   -31.013797    0.1669674 
 2019000    218.27018   -30.900563   -31.041631   -31.041631   0.14106818 
 2020000    237.91845   -31.036371   -31.190138   -31.190138   0.15376687 
 2021000    215.70546   -30.850589       -30.99       -30.99    0.1394106 
 2022000    240.33618   -31.053853   -31.209182   -31.209182   0.15532945 
 2023000    249.40945   -31.013798   -31.174992   -31.174992   0.16119351 
 2024000    221.10705   -30.838333   -30.981234   -30.981234   0.14290165 
 2025000    226.68846   -31.038409   -31.184918   -31.184918   0.14650892 
 2026000    214.50315    -30.98111   -31.119743   -31.119743   0.13863354 
 2027000    212.05299    -31.07957    -31.21662    -31.21662      0.13705 
 2028000    225.63953   -31.058404   -31.204235   -31.204235   0.14583099 
 2029000    217.76213   -30.919658   -31.060398   -31.060398   0.14073982 
 2030000    207.80484   -31.063034   -31.197338   -31.197338   0.13430442 
 2031000    207.20279   -31.050936   -31.184851   -31.184851   0.13391531 
 2032000    217.44111   -30.996102   -31.136635   -31.136635   0.14053234 
 2033000    195.69772   -31.077841    -31.20432    -31.20432   0.12647958 
 2034000    209.13672   -31.129513   -31.264678   -31.264678   0.13516522 
 2035000    193.95765   -30.998214   -31.123569   -31.123569   0.12535497 
 2036000    181.20839   -31.037695    -31.15481    -31.15481   0.11711512 
 2037000    186.70893   -31.112102   -31.232772   -31.232772   0.12067011 
 2038000    169.51085   -30.952906   -31.062461   -31.062461   0.10955498 
 2039000    192.73886   -31.136041   -31.260608   -31.260608   0.12456726 
 2040000    173.10607   -31.099256   -31.211135   -31.211135   0.11187858 
 2041000    172.44406   -30.970576   -31.082027   -31.082027   0.11145072 
 2042000    160.38086   -31.154161   -31.257815   -31.257815   0.10365427 
 2043000    172.04545   -31.101404   -31.212597   -31.212597    0.1111931 
 2044000    174.61905   -31.081193    -31.19405    -31.19405   0.11285642 
 2045000    160.64134   -31.069456   -31.173279   -31.173279   0.10382261 
 2046000    156.27819   -31.126204   -31.227206   -31.227206   0.10100271 
 2047000    155.24669   -31.104355   -31.204691   -31.204691   0.10033605 
 2048000    148.44498    -31.16919   -31.265131   -31.265131  0.095940101 
 2049000    162.30793   -30.948144   -31.053044   -31.053044   0.10489974 
 2050000    141.33881   -31.086767   -31.178114   -31.178114  0.091347375 
 2051000    146.88379   -31.135385   -31.230316   -31.230316  0.094931101 
 2052000      128.742   -31.102528   -31.185734   -31.185734  0.083206049 
 2053000    135.03551   -31.099927   -31.187201   -31.187201   0.08727355 
 2054000     139.8363   -31.184492   -31.274868   -31.274868  0.090376303 
 2055000    142.35358   -31.051089   -31.143092   -31.143092  0.092003224 
 2056000     133.7999   -31.176826   -31.263301   -31.263301  0.086474972 
 2057000    137.66439   -31.154666   -31.243638   -31.243638  0.088972592 
 2058000    112.73208   -31.179881    -31.25274    -31.25274  0.072858827 
 2059000    119.39986   -31.076601   -31.153769   -31.153769  0.077168216 
 2060000    133.59607   -31.139415   -31.225758   -31.225758  0.086343238 
 2061000    124.49398   -31.153553   -31.234014   -31.234014  0.080460551 
 2062000    133.70385   -31.153364   -31.239777   -31.239777  0.086412895 
 2063000    118.84415   -31.117602   -31.194411   -31.194411  0.076809057 
 2064000    107.65885   -31.139978   -31.209558   -31.209558  0.069579994 
 2065000     104.5995   -31.158967    -31.22657    -31.22657  0.067602735 
 2066000    107.20711   -31.149773   -31.219061   -31.219061  0.069288035 
 2067000    95.630042   -31.155435    -31.21724    -31.21724  0.061805766 
 2068000    96.769574   -31.223881   -31.286423   -31.286423  0.062542246 
 2069000    95.992498   -31.166039   -31.228079   -31.228079  0.062040021 
 2070000      95.3142   -31.171063   -31.232665   -31.232665  0.061601636 
 2071000    88.026576   -31.195107   -31.251999   -31.251999   0.05689164 
 2072000    88.118665   -31.164105   -31.221056   -31.221056  0.056951157 
 2073000    80.789546   -31.223642   -31.275856   -31.275856  0.052214342 
 2074000    79.503338   -31.163909   -31.215292   -31.215292  0.051383065 
 2075000    75.897868   -31.211314   -31.260367   -31.260367  0.049052847 
 2076000    66.001544   -31.214161   -31.256818   -31.256818  0.042656846 
 2077000    65.360568   -31.187837    -31.23008    -31.23008  0.042242583 
 2078000     66.09802   -31.236503   -31.279222   -31.279222  0.042719199 
 2079000     65.45136   -31.221473   -31.263775   -31.263775  0.042301262 
 2080000    52.832392   -31.174171   -31.208316   -31.208316  0.034145613 
 2081000    55.208024   -31.256759    -31.29244    -31.29244  0.035680986 
 2082000    54.981475   -31.242617   -31.278152   -31.278152  0.035534567 
 2083000    55.612842   -31.229675   -31.265617   -31.265617   0.03594262 
 2084000    47.660016   -31.245792   -31.276595   -31.276595  0.030802703 
 2085000    52.499711   -31.261621   -31.295552   -31.295552  0.033930601 
 2086000    41.773046   -31.243657   -31.270655   -31.270655   0.02699795 
 2087000    42.873319   -31.274973   -31.302682   -31.302682  0.027709057 
 2088000    33.347464   -31.264937   -31.286489   -31.286489   0.02155249 
 2089000    30.583733    -31.27341   -31.293176   -31.293176  0.019766289 
 2090000    27.672616   -31.285788   -31.303672   -31.303672  0.017884832 
 2091000    25.833479    -31.28085   -31.297547   -31.297547  0.016696196 
 2092000    23.785836     -31.2895   -31.304873   -31.304873  0.015372803 
 2093000    21.942927   -31.282836   -31.297018   -31.297018   0.01418173 
 2094000    19.433305   -31.283111   -31.295671   -31.295671  0.012559759 
 2095000    17.557506   -31.293122    -31.30447    -31.30447  0.011347429 
 2096000    12.031877    -31.30226   -31.310036   -31.310036 0.0077762106 
 2097000    9.4755998   -31.299669   -31.305793   -31.305793  0.006124087 
 2098000    6.0472277   -31.309021   -31.312929   -31.312929 0.0039083276 
 2099000    3.5221957   -31.310334    -31.31261    -31.31261 0.0022763976 
 2100000    0.2585279    -31.31381   -31.313977   -31.313977 0.00016708677 
 2100067  0.021826665   -31.314033   -31.314047   -31.314047 1.410659e-05 
Loop time of 12.2071 on 1 procs for 1000000 steps with 6 atoms

Performance: 707.784 ns/day, 0.034 hours/ns, 81919.390 timesteps/s
98.5% CPU use with 1 MPI tasks x 1 OpenMP threads

MPI task timing breakdown:
Section |  min time  |  avg time  |  max time  |%varavg| %total
---------------------------------------------------------------
Pair    | 9.2309     | 9.2309     | 9.2309     |   0.0 | 75.62
Neigh   | 0.35756    | 0.35756    | 0.35756    |   0.0 |  2.93
Comm    | 0.44175    | 0.44175    | 0.44175    |   0.0 |  3.62
Output  | 0.21331    | 0.21331    | 0.21331    |   0.0 |  1.75
Modify  | 1.5841     | 1.5841     | 1.5841     |   0.0 | 12.98
Other   |            | 0.3795     |            |       |  3.11

Nlocal:        6.00000 ave           6 max           6 min
Histogram: 1 0 0 0 0 0 0 0 0 0
Nghost:        26.0000 ave          26 max          26 min
Histogram: 1 0 0 0 0 0 0 0 0 0
Neighs:         0.00000 ave           0 max           0 min
Histogram: 1 0 0 0 0 0 0 0 0 0
FullNghs:      30.0000 ave          30 max          30 min
Histogram: 1 0 0 0 0 0 0 0 0 0

Total # of neighbors = 30
Ave neighs/atom = 5.0000000
Neighbor list builds = 14093
Dangerous builds = 0
write_restart 	./endconf/endconf*3.restart
System init for write_restart ...

Total wall time: 0:00:26
