LAMMPS (29 Sep 2021 - Update 2)
OMP_NUM_THREADS environment is not set. Defaulting to 1 thread. (src/comm.cpp:98)
  using 1 OpenMP thread(s) per MPI task
#============Initialization=================
units 			metal
atom_style 		atomic
boundary 		p p p

############################################
#              CLI Variables               #
############################################
variable 		seed index 200093          #
variable 		N index 6                  #
variable 		iter index 1000000         #
variable 		iterther index 100000      #
variable 		iexport index 1000         #
variable 		tempchauf index 3000       #
variable 		Tdamp index 0.001          #
variable 		timestep index 0.0001      #
variable 		box_size index 100		   #
############################################
############################################

#=========Simulation box definition=========
lattice 		sc 1.0
Lattice spacing in x,y,z = 1.0000000 1.0000000 1.0000000
region 			bigbox block 0 ${box_size} 0 ${box_size} 0 ${box_size}
region 			bigbox block 0 100 0 ${box_size} 0 ${box_size}
region 			bigbox block 0 100 0 100 0 ${box_size}
region 			bigbox block 0 100 0 100 0 100
create_box 		1 bigbox
Created orthogonal box = (0.0000000 0.0000000 0.0000000) to (100.00000 100.00000 100.00000)
  1 by 1 by 1 MPI processor grid

#==================Atoms====================
region 			safezone block 6 9 6 9 6 9 units box
create_atoms 	1 random ${N} ${seed} safezone
create_atoms 	1 random 6 ${seed} safezone
create_atoms 	1 random 6 200093 safezone
Created 6 atoms
  using lattice units in orthogonal box = (0.0000000 0.0000000 0.0000000) to (100.00000 100.00000 100.00000)
  create_atoms CPU = 0.001 seconds
mass 			* 12.01



#==========Velocity initialization==========
velocity 		all create 0.0000001 1563967 rot yes dist gaussian

#======Pair style for atom interactions=============
pair_style 		airebo 1.8
pair_coeff 		* * CH.airebo C
Reading airebo potential file CH.airebo with DATE: 2011-10-25

#==============Neighbor selection===================
neighbor 		2.0 bin
neigh_modify 	every 1 delay 0 check yes


#=====================Timestep======================
timestep 		${timestep}
timestep 		0.0001

#===============Define dump command=================
dump 			1 all cfg 100000 ./dump/dump.tensile_*.cfg mass type xs ys zs vx vy vz id

#========System temperature printing info===========
thermo_style 	custom step temp etotal epair pe ke
thermo 			${iexport}
thermo 			1000



#====================CRC Cycle======================

#=============Condensation et chauffe===============
fix 			1 all nve
fix 			2 all temp/berendsen 0.0 ${tempchauf} ${Tdamp}
fix 			2 all temp/berendsen 0.0 3000 ${Tdamp}
fix 			2 all temp/berendsen 0.0 3000 0.001
fix             3 all momentum 1 linear 1 1 1 angular rescale

run 			${iter}
run 			1000000
Neighbor list info ...
  update every 1 steps, delay 0 steps, check yes
  max neighbors/atom: 2000, page size: 100000
  master list distance cutoff = 9.816371
  ghost atom cutoff = 9.816371
  binsize = 4.9081855, bins = 21 21 21
  1 neighbor lists, perpetual/occasional/extra = 1 0 0
  (1) pair airebo, perpetual
      attributes: full, newton on, ghost
      pair build: full/bin/ghost
      stencil: full/ghost/bin/3d
      bin: standard
Per MPI rank memory allocation (min/avg/max) = 5.193 | 5.193 | 5.193 Mbytes
Step Temp TotEng E_pair PotEng KinEng 
       0        1e-07     24.80326     24.80326     24.80326 6.4630073e-11 
    1000    14.410476   -25.510849   -25.520162   -25.520162 0.0093135008 
    2000    18.221006   -26.112134   -26.123911   -26.123911  0.011776249 
    3000    20.617246   -27.384436   -27.397761   -27.397761  0.013324941 
    4000     19.84096   -28.054624   -28.067447   -28.067447  0.012823227 
    5000    21.352563   -28.563352   -28.577152   -28.577152  0.013800177 
    6000    24.290986   -28.987172   -29.002871   -29.002871  0.015699282 
    7000    25.693665   -29.405704    -29.42231    -29.42231  0.016605834 
    8000    23.093334    -29.58431   -29.599236   -29.599236  0.014925239 
    9000    23.850158   -29.532359   -29.547774   -29.547774  0.015414375 
   10000    34.756257   -29.556007    -29.57847    -29.57847  0.022462994 
   11000    32.991249   -29.566671   -29.587993   -29.587993  0.021322268 
   12000    35.796774   -29.563151   -29.586286   -29.586286  0.023135481 
   13000    37.039691   -29.551844   -29.575783   -29.575783  0.023938779 
   14000    38.987936   -29.546641   -29.571839   -29.571839  0.025197932 
   15000    44.921071   -29.549599   -29.578632   -29.578632  0.029032521 
   16000    43.725663   -29.522493   -29.550753   -29.550753  0.028259928 
   17000    53.845323   -29.524387   -29.559187   -29.559187  0.034800271 
   18000     57.27105   -29.483205   -29.520219   -29.520219  0.037014321 
   19000    51.970655   -29.507329   -29.540917   -29.540917  0.033588672 
   20000    54.841343   -29.547891   -29.583335   -29.583335     0.035444 
   21000    70.670665    -29.47737   -29.523044   -29.523044  0.045674502 
   22000    58.426104   -29.536166   -29.573927   -29.573927  0.037760833 
   23000    76.381826   -29.502802   -29.552167   -29.552167   0.04936563 
   24000    76.943196   -29.508196   -29.557925   -29.557925  0.049728443 
   25000    70.926401   -29.471899   -29.517739   -29.517739  0.045839784 
   26000    86.351413   -29.512069   -29.567878   -29.567878  0.055808981 
   27000    72.282437   -29.475805   -29.522521   -29.522521  0.046716192 
   28000     84.71997   -29.501342   -29.556097   -29.556097  0.054754578 
   29000    79.442719   -29.510639   -29.561983   -29.561983  0.051343887 
   30000    84.360051    -29.44504   -29.499562   -29.499562  0.054521962 
   31000    96.092547   -29.508332   -29.570436   -29.570436  0.062104683 
   32000    95.924744   -29.477377   -29.539373   -29.539373  0.061996231 
   33000    101.08156   -29.504264   -29.569593   -29.569593  0.065329086 
   34000    115.30402   -29.439526   -29.514047   -29.514047  0.074521069 
   35000    99.373903   -29.482051   -29.546276   -29.546276  0.064225426 
   36000    109.53794   -29.443337   -29.514132   -29.514132  0.070794453 
   37000     108.3454   -29.420221   -29.490245   -29.490245  0.070023713 
   38000    94.990289   -29.428743   -29.490135   -29.490135  0.061392293 
   39000    123.78048   -29.416786   -29.496786   -29.496786  0.079999416 
   40000    117.79198    -29.48361   -29.559739   -29.559739  0.076129039 
   41000    126.69604   -29.473231   -29.555114   -29.555114  0.081883742 
   42000    135.93831   -29.449854   -29.537711   -29.537711  0.087857028 
   43000    109.19227   -29.407365   -29.477936   -29.477936  0.070571043 
   44000    147.60326    -29.44735   -29.542746   -29.542746  0.095396095 
   45000    121.46047   -29.451034   -29.529534   -29.529534  0.078499992 
   46000    145.54787   -29.394493   -29.488561   -29.488561  0.094067692 
   47000    133.94232   -29.341674   -29.428241   -29.428241  0.086567016 
   48000    148.11588   -29.403556   -29.499284   -29.499284  0.095727399 
   49000    154.32617   -29.288456   -29.388197   -29.388197  0.099741114 
   50000    135.40307     -29.3982   -29.485711   -29.485711  0.087511104 
   51000    141.94214    -29.40153   -29.493268   -29.493268  0.091737308 
   52000    154.05921   -29.406897   -29.506466   -29.506466  0.099568577 
   53000    163.97089   -29.336359   -29.442333   -29.442333    0.1059745 
   54000    160.78746   -29.347122   -29.451039   -29.451039   0.10391705 
   55000    169.69886   -29.387431   -29.497108   -29.497108    0.1096765 
   56000    162.31118   -29.368736   -29.473638   -29.473638   0.10490183 
   57000    160.05568    -29.40885   -29.512294   -29.512294    0.1034441 
   58000    185.77331   -29.381274    -29.50134    -29.50134   0.12006543 
   59000    175.83878   -29.335188   -29.448833   -29.448833   0.11364473 
   60000    184.59823     -29.3471   -29.466406   -29.466406   0.11930597 
   61000    171.02514      -29.372   -29.482533   -29.482533   0.11053367 
   62000    200.80459   -29.291264   -29.421044   -29.421044   0.12978015 
   63000    175.09363   -29.359194   -29.472357   -29.472357   0.11316314 
   64000    175.42979   -29.328727   -29.442107   -29.442107    0.1133804 
   65000    200.71196   -29.286337   -29.416057   -29.416057   0.12972029 
   66000    206.44344   -29.281021   -29.414446   -29.414446   0.13342455 
   67000    188.62615   -29.389493   -29.511402   -29.511402   0.12190922 
   68000    199.27831   -29.387909   -29.516703   -29.516703   0.12879372 
   69000    211.60347   -29.326961   -29.463721   -29.463721   0.13675948 
   70000    203.82501   -29.356111   -29.487844   -29.487844   0.13173225 
   71000    196.83883   -29.183099   -29.310316   -29.310316   0.12721708 
   72000    197.78773   -29.288794   -29.416624   -29.416624   0.12783035 
   73000    240.43692   -29.308945    -29.46434    -29.46434   0.15539456 
   74000    236.13622   -29.277823   -29.430438   -29.430438   0.15261501 
   75000    224.51893   -29.302111   -29.447217   -29.447217   0.14510675 
   76000    250.43123    -29.36097   -29.522824   -29.522824   0.16185389 
   77000    220.29632   -29.287734   -29.430112   -29.430112   0.14237767 
   78000    234.60861   -29.310938   -29.462566   -29.462566   0.15162771 
   79000    241.71491   -29.210908   -29.367128   -29.367128   0.15622052 
   80000    241.69115   -29.299761   -29.455966   -29.455966   0.15620517 
   81000    241.84353   -29.297598   -29.453902   -29.453902   0.15630365 
   82000    212.41052   -29.184491   -29.321772   -29.321772   0.13728107 
   83000    242.89098   -29.172878   -29.329859   -29.329859   0.15698062 
   84000    221.30436   -29.251253   -29.394283   -29.394283   0.14302917 
   85000    248.70777   -29.325716   -29.486456   -29.486456   0.16074001 
   86000    252.46017   -29.329707   -29.492872   -29.492872   0.16316519 
   87000    278.63498   -29.311494   -29.491576   -29.491576   0.18008199 
   88000    256.29369   -29.112458   -29.278101   -29.278101    0.1656428 
   89000    250.05255   -29.111729   -29.273338   -29.273338   0.16160914 
   90000    259.09477   -29.339469   -29.506922   -29.506922   0.16745314 
   91000    281.54539   -29.238971   -29.420934   -29.420934   0.18196299 
   92000    274.40148   -29.169559   -29.346905   -29.346905   0.17734587 
   93000    291.13792   -29.253093   -29.441256   -29.441256   0.18816265 
   94000    265.80173   -29.178661   -29.350449   -29.350449   0.17178785 
   95000    295.06875   -29.148165   -29.338868   -29.338868   0.19070315 
   96000    300.35585    -29.21423    -29.40835    -29.40835   0.19412021 
   97000    279.58372   -29.187284   -29.367979   -29.367979   0.18069516 
   98000     277.0024   -29.240674   -29.419701   -29.419701   0.17902685 
   99000    301.37882   -29.188752   -29.383534   -29.383534   0.19478135 
  100000    320.20452   -29.163195   -29.370143   -29.370143   0.20694841 
  101000    282.85175   -29.283577   -29.466385   -29.466385   0.18280729 
  102000    318.68527   -29.228288   -29.434254   -29.434254   0.20596652 
  103000    322.51768   -29.047426   -29.255869   -29.255869   0.20844341 
  104000    316.64786   -28.899879   -29.104528   -29.104528   0.20464974 
  105000    293.74151   -29.007321   -29.197166   -29.197166   0.18984535 
  106000    318.53618   -29.215523   -29.421393   -29.421393   0.20587016 
  107000    305.35453   -29.207498   -29.404849   -29.404849   0.19735086 
  108000    332.75526   -29.239614   -29.454674   -29.454674   0.21505997 
  109000    300.68539    -29.16729   -29.361623   -29.361623   0.19433319 
  110000    322.32618   -29.225684   -29.434004   -29.434004   0.20831965 
  111000    330.48475   -29.149945   -29.363537   -29.363537   0.21359253 
  112000    308.25805   -29.077898   -29.277125   -29.277125    0.1992274 
  113000    352.17402   -29.228638   -29.456248   -29.456248   0.22761033 
  114000    396.57921   -29.181307   -29.437616   -29.437616   0.25630943 
  115000    308.99286   -28.806921   -29.006623   -29.006623   0.19970231 
  116000    356.84596   -28.880553   -29.111183   -29.111183    0.2306298 
  117000    348.47316   -28.984743   -29.209962   -29.209962   0.22521846 
  118000    379.65735   -29.046932   -29.292304   -29.292304   0.24537282 
  119000    341.89462   -29.170263    -29.39123    -29.39123   0.22096674 
  120000    356.02077   -29.123176   -29.353272   -29.353272   0.23009648 
  121000    358.93148   -29.245488   -29.477466   -29.477466   0.23197768 
  122000     369.3568   -29.091768   -29.330484   -29.330484   0.23871557 
  123000    380.73748   -29.074164   -29.320235   -29.320235   0.24607091 
  124000    365.14211   -28.913409     -29.1494     -29.1494   0.23599161 
  125000    358.07752   -28.937287   -29.168713   -29.168713   0.23142576 
  126000    416.57565   -29.007087   -29.276321   -29.276321   0.26923314 
  127000      432.876   -29.084512    -29.36428    -29.36428   0.27976807 
  128000    386.41052   -29.187049   -29.436787   -29.436787    0.2497374 
  129000     401.2205   -29.167428   -29.426737   -29.426737    0.2593091 
  130000    390.71201   -29.112447   -29.364965   -29.364965   0.25251745 
  131000    424.39095   -29.030668   -29.304952   -29.304952   0.27428418 
  132000    447.38681   -28.952254   -29.241401   -29.241401   0.28914642 
  133000    314.28373   -28.985639   -29.188761   -29.188761    0.2031218 
  134000    358.37604   -28.931575   -29.163194   -29.163194   0.23161869 
  135000    424.41782   -28.899015   -29.173316   -29.173316   0.27430155 
  136000    420.97368   -29.148808   -29.420884   -29.420884    0.2720756 
  137000    381.08014   -29.068598   -29.314891   -29.314891   0.24629237 
  138000    381.47538   -29.078048   -29.324596   -29.324596   0.24654782 
  139000    476.83673   -29.110428   -29.418608   -29.418608   0.30817992 
  140000    373.51589   -29.099708   -29.341112   -29.341112   0.24140359 
  141000    476.00144   -28.998204   -29.305844   -29.305844   0.30764007 
  142000    377.24396   -29.017436   -29.261249   -29.261249   0.24381305 
  143000    440.99615   -29.024473   -29.309489   -29.309489   0.28501613 
  144000    519.79327    -28.99568   -29.331623   -29.331623   0.33594277 
  145000    418.82471   -29.106832   -29.377519   -29.377519   0.27068671 
  146000    454.44744   -29.123849   -29.417559   -29.417559   0.29370971 
  147000     482.6259   -28.898109    -29.21003    -29.21003   0.31192147 
  148000    466.26919   -28.859217   -29.160567   -29.160567   0.30135011 
  149000    508.53498   -29.047836   -29.376502   -29.376502   0.32866653 
  150000    542.19578   -28.810865   -29.161286   -29.161286   0.35042153 
  151000    452.48405   -28.912768   -29.205208   -29.205208   0.29244077 
  152000    512.69558   -28.893447   -29.224802   -29.224802   0.33135553 
  153000    432.06738   -28.991745    -29.27099    -29.27099   0.27924546 
  154000    469.67631   -28.777896   -29.081449   -29.081449   0.30355214 
  155000    457.12591   -28.893675   -29.189115   -29.189115   0.29544081 
  156000     495.2396   -29.011709   -29.331783   -29.331783   0.32007371 
  157000    459.24865    -29.16054   -29.457353   -29.457353   0.29681273 
  158000    453.57728   -28.886765   -29.179912   -29.179912   0.29314733 
  159000    475.54624   -28.869614    -29.17696    -29.17696   0.30734588 
  160000    505.03368   -29.167729   -29.494133   -29.494133   0.32640363 
  161000     481.1428   -29.032342   -29.343305   -29.343305   0.31096294 
  162000    502.90796   -28.984687   -29.309717   -29.309717   0.32502978 
  163000    436.84417   -29.028935   -29.311268   -29.311268    0.2823327 
  164000    498.27406   -29.046531   -29.368566   -29.368566   0.32203489 
  165000    459.28217   -29.091592   -29.388427   -29.388427    0.2968344 
  166000    495.56595   -29.037126   -29.357411   -29.357411   0.32028463 
  167000    508.04488   -29.087097   -29.415447   -29.415447   0.32834977 
  168000    449.45935   -28.891303   -29.181789   -29.181789    0.2904859 
  169000    559.22462   -28.864218   -29.225645   -29.225645   0.36142728 
  170000    475.66277   -28.956732   -29.264153   -29.264153   0.30742119 
  171000    501.87894   -28.941791   -29.266155   -29.266155   0.32436473 
  172000    535.41833   -29.089466   -29.435507   -29.435507   0.34604126 
  173000    602.36583   -28.946713   -29.336023   -29.336023   0.38930947 
  174000    556.49246   -28.682709    -29.04237    -29.04237   0.35966148 
  175000    533.51265   -28.786751    -29.13156    -29.13156   0.34480961 
  176000    483.66612   -28.688688   -29.001281   -29.001281   0.31259376 
  177000    475.89787   -28.881368   -29.188942   -29.188942   0.30757314 
  178000    520.00288   -28.905609   -29.241687   -29.241687   0.33607824 
  179000    510.67624   -29.010395   -29.340446   -29.340446   0.33005043 
  180000    544.42586   -28.871098   -29.222961   -29.222961   0.35186283 
  181000    537.33343   -28.847984   -29.195263   -29.195263   0.34727899 
  182000    495.40853   -28.842929   -29.163112   -29.163112   0.32018289 
  183000    546.60939   -28.778057   -29.131331   -29.131331   0.35327404 
  184000    515.40779   -29.047216   -29.380324   -29.380324   0.33310843 
  185000    574.60172   -29.073505   -29.444871   -29.444871   0.37136551 
  186000    562.87677    -28.54474   -28.908527   -28.908527   0.36378766 
  187000    496.79122   -28.653511   -28.974588   -28.974588   0.32107652 
  188000    568.28552   -28.936429   -29.303712   -29.303712   0.36728334 
  189000    591.20308   -28.878299   -29.260394   -29.260394   0.38209498 
  190000    580.66586   -28.781712   -29.156996   -29.156996   0.37528476 
  191000    536.80696   -28.871606   -29.218545   -29.218545   0.34693873 
  192000    569.26815   -28.953175   -29.321094   -29.321094   0.36791842 
  193000    538.65237   -28.698139    -29.04627    -29.04627   0.34813142 
  194000    567.20411    -28.79069   -29.157274   -29.157274   0.36658443 
  195000    606.44195   -28.603237   -28.995181   -28.995181   0.39194387 
  196000    464.69324   -28.408205   -28.708536   -28.708536   0.30033158 
  197000    556.45854   -28.540411   -28.900051   -28.900051   0.35963956 
  198000    606.63053   -28.492541   -28.884606   -28.884606   0.39206575 
  199000    596.44542   -29.023738   -29.409221   -29.409221   0.38548311 
  200000    625.16373   -28.501957      -28.906      -28.906   0.40404377 
  201000     540.0647   -28.662237   -29.011281   -29.011281   0.34904421 
  202000    542.92982   -28.756726   -29.107622   -29.107622   0.35089593 
  203000    641.60076   -28.521534   -28.936201   -28.936201   0.41466704 
  204000    574.51447   -28.544626   -28.915935   -28.915935   0.37130912 
  205000    634.11934   -28.808928    -29.21876    -29.21876   0.40983179 
  206000    598.60914   -28.830278    -29.21716    -29.21716   0.38688152 
  207000    665.63452   -28.458792   -28.888993   -28.888993   0.43020007 
  208000    601.24985   -28.860046   -29.248634   -29.248634   0.38858822 
  209000    617.53253   -29.009165   -29.408276   -29.408276   0.39911172 
  210000    622.35904   -28.955388   -29.357619   -29.357619    0.4022311 
  211000    666.86789   -28.785944   -29.216941   -29.216941    0.4309972 
  212000     589.8468   -28.607003   -28.988221   -28.988221   0.38121842 
  213000    633.41732   -28.765585   -29.174963   -29.174963   0.40937807 
  214000     608.3722   -28.721478   -29.114669   -29.114669    0.3931914 
  215000    692.39177   -28.774181   -29.221674   -29.221674    0.4474933 
  216000     643.1882   -28.715589   -29.131282   -29.131282     0.415693 
  217000    623.52846   -28.619203    -29.02219    -29.02219    0.4029869 
  218000    630.79118   -28.833755   -29.241436   -29.241436    0.4076808 
  219000    649.77478   -28.750881   -29.170831   -29.170831   0.41994991 
  220000    734.74104   -28.836526   -29.311389   -29.311389   0.47486366 
  221000    635.57228   -28.463152   -28.873923   -28.873923   0.41077082 
  222000    687.97265   -28.651293    -29.09593    -29.09593   0.44463722 
  223000    694.90554   -28.953816   -29.402934   -29.402934   0.44911795 
  224000    632.73101   -28.502878   -28.911813   -28.911813   0.40893451 
  225000    726.19186   -28.788173   -29.257512   -29.257512   0.46933833 
  226000    666.34885    -28.66931   -29.099972   -29.099972   0.43066175 
  227000    653.89913   -28.588739   -29.011354   -29.011354   0.42261548 
  228000     702.8101   -28.693303    -29.14753    -29.14753   0.45422668 
  229000    656.36778   -28.777657   -29.201868   -29.201868   0.42421097 
  230000    714.19654   -28.372349   -28.833935   -28.833935   0.46158574 
  231000    679.34794   -28.620702   -29.059765   -29.059765   0.43906307 
  232000    725.96407   -28.871879    -29.34107    -29.34107   0.46919111 
  233000    711.54255   -28.625495   -29.085365   -29.085365   0.45987047 
  234000    639.32487   -28.280634    -28.69383    -28.69383   0.41319613 
  235000    728.92264   -28.708302   -29.179405   -29.179405   0.47110323 
  236000    791.47206   -28.596263   -29.107792   -29.107792   0.51152896 
  237000    737.36993   -28.117383   -28.593945   -28.593945   0.47656272 
  238000    732.72166   -28.712649   -29.186208   -29.186208   0.47355854 
  239000    658.16441   -28.632759   -29.058131   -29.058131   0.42537214 
  240000    739.86192   -28.334078   -28.812252   -28.812252   0.47817329 
  241000    732.28532   -28.447421   -28.920697   -28.920697   0.47327654 
  242000    670.34448   -28.764449   -29.197693   -29.197693   0.43324412 
  243000    835.04433    -28.36775    -28.90744    -28.90744   0.53968976 
  244000    723.56588   -28.193692   -28.661333   -28.661333   0.46764116 
  245000    755.52631     -28.9196   -29.407897   -29.407897    0.4882972 
  246000    790.49365   -28.327716   -28.838613   -28.838613   0.51089662 
  247000     672.5809   -28.519833   -28.954523   -28.954523   0.43468952 
  248000    735.57957   -28.849425    -29.32483    -29.32483   0.47540561 
  249000    783.73142   -28.119095   -28.625621   -28.625621   0.50652619 
  250000    671.16044   -28.378518   -28.812289   -28.812289   0.43377148 
  251000    753.36124   -28.697074   -29.183972   -29.183972   0.48689792 
  252000    750.75813   -28.222657   -28.707873   -28.707873   0.48521553 
  253000    729.21896   -28.593652   -29.064947   -29.064947   0.47129474 
  254000    743.99334   -28.878908   -29.359751   -29.359751   0.48084343 
  255000    742.36804   -28.409245   -28.889038   -28.889038     0.479793 
  256000    765.94374   -28.346207   -28.841237   -28.841237      0.49503 
  257000     781.7062   -28.747235   -29.252452   -29.252452   0.50521728 
  258000    736.15728   -28.478418   -28.954197   -28.954197   0.47577898 
  259000    790.23553   -28.681463   -29.192193   -29.192193   0.51072979 
  260000     882.4429   -28.487928   -29.058251   -29.058251   0.57032349 
  261000    856.84287   -28.148626   -28.702404   -28.702404   0.55377817 
  262000    780.01921   -28.175257   -28.679384   -28.679384   0.50412698 
  263000    777.56851   -28.568632   -29.071175   -29.071175   0.50254309 
  264000    837.33441   -28.721406   -29.262576   -29.262576   0.54116984 
  265000    770.81181   -28.345476   -28.843652   -28.843652   0.49817623 
  266000    770.35109   -28.307518   -28.805396   -28.805396   0.49787847 
  267000    765.23413   -28.388284   -28.882855   -28.882855   0.49457137 
  268000    818.57124   -28.790186   -29.319229   -29.319229   0.52904319 
  269000    693.22374   -27.756187   -28.204218   -28.204218     0.448031 
  270000    792.74694   -28.914637    -29.42699    -29.42699   0.51235292 
  271000    908.98962   -28.066708   -28.654189   -28.654189   0.58748065 
  272000    792.74756   -28.435854   -28.948207   -28.948207   0.51235332 
  273000    769.61427   -28.816697   -29.314099   -29.314099   0.49740226 
  274000     905.1157   -28.165353    -28.75033    -28.75033   0.58497693 
  275000    810.79851   -28.549601   -29.073621   -29.073621   0.52401967 
  276000    845.00628   -28.668577   -29.214705   -29.214705   0.54612817 
  277000    893.35054   -28.346949   -28.924322   -28.924322    0.5773731 
  278000    789.84172    -28.51039   -29.020865   -29.020865   0.51047528 
  279000     898.4145   -28.352941   -28.933587   -28.933587   0.58064595 
  280000    753.38761    -28.32172   -28.808635   -28.808635   0.48691496 
  281000    867.45789   -28.023553   -28.584192   -28.584192   0.56063866 
  282000    789.45544   -28.592695   -29.102921   -29.102921   0.51022562 
  283000    841.24084   -28.696139   -29.239834   -29.239834   0.54369457 
  284000    876.96857   -28.312858   -28.879644   -28.879644   0.56678542 
  285000    902.26767   -28.321451   -28.904587   -28.904587   0.58313625 
  286000    841.79182   -28.602277   -29.146327   -29.146327   0.54405066 
  287000    848.66813   -28.459732   -29.008226   -29.008226   0.54849483 
  288000    823.56319   -28.566696   -29.098966   -29.098966   0.53226949 
  289000    843.50391   -28.331326   -28.876484   -28.876484   0.54515719 
  290000    839.90524   -28.394596   -28.937428   -28.937428   0.54283137 
  291000    885.09911   -28.426365   -28.998405   -28.998405    0.5720402 
  292000    905.81899   -28.475292   -29.060723   -29.060723   0.58543147 
  293000    906.72622   -28.467595   -29.053612   -29.053612   0.58601781 
  294000    845.15832   -28.368403    -28.91463    -28.91463   0.54622643 
  295000    890.61141   -28.374319   -28.949922   -28.949922    0.5756028 
  296000     883.8893   -28.346439   -28.917698   -28.917698   0.57125829 
  297000    906.92848   -28.486645   -29.072793   -29.072793   0.58614853 
  298000    905.34948    -28.37305   -28.958178   -28.958178   0.58512803 
  299000    882.22573   -28.377343   -28.947526   -28.947526   0.57018313 
  300000    892.21268   -28.390225   -28.966863   -28.966863    0.5766377 
  301000    904.42276   -28.218234   -28.802763   -28.802763   0.58452909 
  302000    895.98627    -28.47891   -29.057986   -29.057986   0.57907657 
  303000     903.1289   -28.370053   -28.953746   -28.953746   0.58369286 
  304000    928.09384   -28.275796   -28.875624   -28.875624   0.59982772 
  305000    892.02654   -28.575055   -29.151573   -29.151573    0.5765174 
  306000    924.56531   -28.433357   -29.030904   -29.030904   0.59754723 
  307000     930.7708   -28.340792   -28.942349   -28.942349   0.60155784 
  308000    900.18122   -28.394677   -28.976465   -28.976465   0.58178777 
  309000    915.58116    -28.25398    -28.84572    -28.84572   0.59174077 
  310000    922.40012   -28.439952     -29.0361     -29.0361   0.59614787 
  311000    883.73141   -28.148683   -28.719839   -28.719839   0.57115625 
  312000    919.01581   -28.380345   -28.974305   -28.974305   0.59396059 
  313000    944.81381   -28.412602   -29.023236   -29.023236   0.61063385 
  314000    971.07663   -28.366761   -28.994369   -28.994369   0.62760753 
  315000    952.52373   -28.227578   -28.843195   -28.843195   0.61561677 
  316000    924.08961    -28.23804    -28.83528    -28.83528   0.59723979 
  317000    978.65778   -28.397474   -29.029982   -29.029982   0.63250723 
  318000     965.0052   -28.188175   -28.811859   -28.811859   0.62368356 
  319000    953.12866   -28.531678   -29.147685   -29.147685   0.61600775 
  320000    998.81952   -28.164285   -28.809823   -28.809823   0.64553778 
  321000    984.10514   -28.286513   -28.922541   -28.922541   0.63602787 
  322000    942.95942   -28.474255    -29.08369    -29.08369   0.60943536 
  323000    1022.2867   -28.120311   -28.781015   -28.781015   0.66070461 
  324000    920.78832   -28.456023   -29.051129   -29.051129   0.59510616 
  325000     1040.335   -28.226252   -28.898621   -28.898621   0.67236928 
  326000    965.25227   -28.244031   -28.867874   -28.867874   0.62384324 
  327000     989.9321   -28.491331   -29.131125   -29.131125   0.63979383 
  328000    994.28605   -28.133905   -28.776513   -28.776513   0.64260779 
  329000     1070.014   -28.084173   -28.775724   -28.775724    0.6915508 
  330000    987.44395   -28.148636   -28.786822   -28.786822   0.63818574 
  331000    942.21385   -28.462144   -29.071098   -29.071098    0.6089535 
  332000    977.24467    -28.40643   -29.038024   -29.038024   0.63159394 
  333000    1028.1051   -27.662763   -28.327228   -28.327228   0.66446507 
  334000    911.84892   -27.746581    -28.33591    -28.33591   0.58932862 
  335000    934.41738   -28.328448   -28.932363   -28.932363   0.60391463 
  336000    962.88482   -28.361504   -28.983818   -28.983818   0.62231315 
  337000    1055.9323   -27.530292   -28.212742   -28.212742   0.68244983 
  338000    999.25125   -28.433249   -29.079066   -29.079066    0.6458168 
  339000    1009.4305   -28.363466   -29.015862   -29.015862   0.65239569 
  340000    919.65292   -27.976379   -28.570752   -28.570752   0.59437235 
  341000    1016.9833   -28.010524   -28.667801   -28.667801   0.65727707 
  342000    1030.1077    -28.36764     -29.0334     -29.0334   0.66575937 
  343000    984.23155   -28.057913   -28.694023   -28.694023   0.63610956 
  344000    881.69261   -27.264084   -27.833923   -27.833923   0.56983858 
  345000    961.98983   -27.996594   -28.618328   -28.618328   0.62173473 
  346000    1046.4398   -28.181044   -28.857359   -28.857359   0.67631478 
  347000    997.26563   -27.899795   -28.544328   -28.544328    0.6445335 
  348000    1030.9163   -28.384628    -29.05091    -29.05091   0.66628196 
  349000    1028.5307   -28.456164   -29.120905   -29.120905   0.66474014 
  350000    1019.8964   -27.862095   -28.521255   -28.521255   0.65915979 
  351000    1068.1759   -28.521241   -29.211604   -29.211604   0.69036285 
  352000    1110.0649    -28.14293   -28.860366   -28.860366   0.71743574 
  353000    1009.0387   -27.969882   -28.622025   -28.622025   0.65214242 
  354000    1124.1105   -28.388391   -29.114904   -29.114904   0.72651344 
  355000    1066.5559   -27.767127   -28.456443   -28.456443   0.68931583 
  356000    1143.5826   -28.297386   -29.036484   -29.036484   0.73909826 
  357000    1019.2634   -28.213234   -28.871985   -28.871985   0.65875067 
  358000    1032.3016   -27.834569   -28.501747   -28.501747   0.66717728 
  359000    1079.0064   -28.073355   -28.770718   -28.770718   0.69736264 
  360000    1054.6655   -28.105953   -28.787584   -28.787584   0.68163106 
  361000    1066.4109   -27.977186   -28.666408   -28.666408   0.68922214 
  362000    1025.4093   -28.189515   -28.852238   -28.852238   0.66272276 
  363000      1047.43    -27.64798   -28.324935   -28.324935    0.6769548 
  364000    1074.2232   -28.125705   -28.819977   -28.819977   0.69427123 
  365000    1051.4801   -28.084787    -28.76436    -28.76436   0.67957234 
  366000     1098.996   -28.153297   -28.863579   -28.863579   0.71028189 
  367000    1139.3733   -28.042675   -28.779053   -28.779053   0.73637782 
  368000    1186.9971   -28.010782   -28.777939   -28.777939   0.76715709 
  369000    1174.3606   -28.327447   -29.086437   -29.086437   0.75899008 
  370000    1088.7886   -28.344465    -29.04815    -29.04815   0.70368483 
  371000    1056.6758   -27.923325   -28.606255   -28.606255   0.68293032 
  372000    1153.0227   -28.353044   -29.098243   -29.098243   0.74519938 
  373000    1174.6892   -27.941611   -28.700814   -28.700814   0.75920248 
  374000    1092.4757    -28.03252   -28.738588   -28.738588   0.70606782 
  375000    1137.0791   -28.087151   -28.822046   -28.822046   0.73489503 
  376000    1109.2243   -28.096539   -28.813431   -28.813431   0.71689247 
  377000    1140.9603   -28.282417   -29.019821   -29.019821   0.73740344 
  378000    1139.1202   -28.291638   -29.027852   -29.027852   0.73621418 
  379000    1095.2285   -28.034581   -28.742428   -28.742428   0.70784698 
  380000    1135.6543   -28.199538   -28.933512   -28.933512   0.73397418 
  381000    1141.1611    -28.03849   -28.776023   -28.776023   0.73753324 
  382000    1134.0351   -28.303416   -29.036343   -29.036343   0.73292771 
  383000    1129.6734   -28.151985   -28.882093   -28.882093   0.73010871 
  384000    1150.1447   -28.138232   -28.881572   -28.881572   0.74333933 
  385000    1120.9218   -28.199848     -28.9243     -28.9243   0.72445259 
  386000    1164.7346   -28.196125   -28.948893   -28.948893   0.75276881 
  387000    1134.9333   -28.012877   -28.746385   -28.746385   0.73350821 
  388000    1175.2304   -28.236099   -28.995651   -28.995651   0.75955226 
  389000     1132.001     -27.9901   -28.721713   -28.721713   0.73161308 
  390000    1158.9871   -28.066368   -28.815422   -28.815422   0.74905423 
  391000    1161.7455   -27.935312   -28.686149   -28.686149   0.75083696 
  392000    1164.1677    -27.98038   -28.732783   -28.732783   0.75240244 
  393000    1218.0073   -28.215301     -29.0025     -29.0025     0.787199 
  394000    1190.5578   -27.936087   -28.705545   -28.705545    0.7694584 
  395000    1176.6052    -28.21987   -28.980311   -28.980311   0.76044079 
  396000    1207.9879   -27.955954   -28.736677   -28.736677   0.78072346 
  397000    1183.0595   -28.156491   -28.921103   -28.921103    0.7646122 
  398000    1202.9633   -28.192356   -28.969832   -28.969832   0.77747608 
  399000    1176.7794   -27.958877    -28.71943    -28.71943   0.76055338 
  400000    1196.8796   -28.279241   -29.052786   -29.052786   0.77354414 
  401000    1192.6525   -28.026298    -28.79711    -28.79711    0.7708122 
  402000     1199.315    -28.16936   -28.944478   -28.944478   0.77511817 
  403000    1237.7378   -28.067245   -28.867196   -28.867196   0.79995081 
  404000    1198.7393     -27.9045   -28.679246   -28.679246   0.77474608 
  405000     1202.756   -28.261955   -29.039297   -29.039297   0.77734207 
  406000    1262.7272   -27.850699     -28.6668     -28.6668   0.81610152 
  407000    1207.4546   -27.959006   -28.739384   -28.739384   0.78037877 
  408000    1219.5962   -28.027603   -28.815829   -28.815829   0.78822594 
  409000    1225.0184   -27.979296   -28.771027   -28.771027   0.79173027 
  410000    1229.6916   -28.112999   -28.907749   -28.907749   0.79475059 
  411000    1278.9747   -27.900122   -28.726724   -28.726724    0.8266023 
  412000    1225.9266   -28.303101   -29.095418   -29.095418   0.79231722 
  413000    1248.1552   -27.998232   -28.804915   -28.804915   0.80668362 
  414000     1241.619   -27.944176   -28.746635   -28.746635   0.80245928 
  415000    1282.6103    -28.06515   -28.894102   -28.894102   0.82895198 
  416000    1263.1091   -27.971887   -28.788235   -28.788235    0.8163483 
  417000    1220.1996   -28.027788   -28.816403   -28.816403   0.78861587 
  418000    1257.1845    -28.14009   -28.952609   -28.952609   0.81251923 
  419000    1242.0621   -27.919548   -28.722294   -28.722294   0.80274563 
  420000    1284.1899   -27.759679   -28.589652   -28.589652   0.82997286 
  421000    1226.0864   -28.016037   -28.808457   -28.808457   0.79242054 
  422000    1289.0623   -27.964035   -28.797157   -28.797157   0.83312189 
  423000    1256.4149   -27.857292   -28.669313   -28.669313   0.81202183 
  424000    1288.5823   -28.136041   -28.968853   -28.968853   0.83281166 
  425000    1250.9036   -27.665424   -28.473884   -28.473884    0.8084599 
  426000    1274.5713    -28.20157   -29.025327   -29.025327   0.82375635 
  427000    1253.3215   -27.850935   -28.660958   -28.660958   0.81002257 
  428000    1287.0537   -28.033026   -28.864849   -28.864849   0.83182373 
  429000    1316.9734   -28.044711   -28.895872   -28.895872   0.85116089 
  430000    1277.7349   -27.934144   -28.759945   -28.759945   0.82580096 
  431000    1323.2731   -27.995132   -28.850364   -28.850364   0.85523236 
  432000    1323.3154   -27.718384   -28.573643   -28.573643   0.85525972 
  433000    1292.2121   -28.196315   -29.031472   -29.031472   0.83515761 
  434000    1267.9766   -27.899094   -28.718589   -28.718589   0.81949421 
  435000    1313.7298   -27.973507   -28.822572   -28.822572   0.84906454 
  436000    1360.2034   -28.134872   -29.013972   -29.013972   0.87910046 
  437000    1342.2669    -27.84223   -28.709739   -28.709739   0.86750805 
  438000     1292.395   -27.893237   -28.728513   -28.728513   0.83527585 
  439000    1338.7907   -28.180462   -29.045724   -29.045724   0.86526141 
  440000    1302.9079   -27.754323   -28.596394   -28.596394   0.84207032 
  441000    1279.7608    -27.91012    -28.73723    -28.73723   0.82711032 
  442000    1351.5824   -27.966821    -28.84035    -28.84035   0.87352868 
  443000    1323.8673   -27.733197   -28.588813   -28.588813   0.85561643 
  444000     1352.136   -28.045058   -28.918945   -28.918945    0.8738865 
  445000    1400.5602   -27.328747    -28.23393    -28.23393   0.90518309 
  446000    1372.0549   -28.186531   -29.073291   -29.073291   0.88676011 
  447000    1337.3868   -27.884555   -28.748909   -28.748909   0.86435408 
  448000    1329.4268   -27.962679   -28.821888   -28.821888   0.85920947 
  449000    1345.3398   -27.833747   -28.703241   -28.703241    0.8694941 
  450000    1345.3675   -27.676126   -28.545638   -28.545638   0.86951199 
  451000    1401.6365   -28.097895   -29.003774   -29.003774   0.90587867 
  452000     1410.828   -27.698701    -28.61052    -28.61052   0.91181914 
  453000    1308.9929   -28.070833   -28.916836   -28.916836   0.84600308 
  454000    1345.8972   -27.280664   -28.150519   -28.150519   0.86985435 
  455000    1363.2741   -27.979225   -28.860311   -28.860311   0.88108507 
  456000    1403.4303   -27.942574   -28.849612   -28.849612     0.907038 
  457000    1346.0713   -27.745622   -28.615589   -28.615589   0.86996687 
  458000    1345.1103   -27.680797   -28.550143   -28.550143   0.86934577 
  459000    1390.4515   -27.594491   -28.493141   -28.493141   0.89864983 
  460000    1400.9083   -27.759816   -28.665224   -28.665224   0.90540805 
  461000     1400.198    -27.55515   -28.460099   -28.460099   0.90494901 
  462000     1328.763   -27.635791   -28.494572   -28.494572   0.85878047 
  463000    1316.7745   -28.168545   -29.019578   -29.019578   0.85103234 
  464000    1477.5567    -27.74225   -28.697196   -28.697196   0.95494595 
  465000    1415.9538    -27.98391   -28.899042   -28.899042   0.91513195 
  466000    1510.7732   -27.807465   -28.783879   -28.783879   0.97641381 
  467000    1399.4869   -27.738633   -28.643123   -28.643123   0.90448939 
  468000    1403.9704   -27.808145   -28.715532   -28.715532    0.9073871 
  469000    1358.6869   -27.758981   -28.637101   -28.637101   0.87812032 
  470000    1389.3382    -27.84876   -28.746691   -28.746691   0.89793028 
  471000     1374.782   -27.932891   -28.821413   -28.821413    0.8885226 
  472000    1355.2564   -27.892787    -28.76869    -28.76869   0.87590317 
  473000     1415.113   -27.734632   -28.649221   -28.649221   0.91458859 
  474000    1449.2595   -27.940601   -28.877258   -28.877258   0.93665746 
  475000    1442.9057   -27.650081   -28.582632   -28.582632     0.932551 
  476000    1404.7731   -28.047696   -28.955602   -28.955602   0.90790584 
  477000    1471.4614   -27.720997   -28.672003   -28.672003   0.95100658 
  478000    1426.4428   -27.726489     -28.6484     -28.6484     0.921911 
  479000    1482.0923   -27.669778   -28.627656   -28.627656   0.95787733 
  480000     1468.754   -27.892721   -28.841977   -28.841977    0.9492568 
  481000    1469.7932   -27.845624   -28.795552   -28.795552   0.94992842 
  482000    1429.6414   -27.964742    -28.88872    -28.88872   0.92397825 
  483000    1502.7371   -27.717421   -28.688641   -28.688641   0.97122007 
  484000    1401.3354   -27.842642   -28.748326   -28.748326    0.9056841 
  485000    1385.8951   -27.636794   -28.532499   -28.532499   0.89570498 
  486000    1473.4564   -27.915582   -28.867878   -28.867878   0.95229591 
  487000    1486.1749   -27.589448   -28.549964   -28.549964   0.96051592 
  488000    1422.6336   -27.862761    -28.78221    -28.78221   0.91944913 
  489000    1482.2992   -27.523237   -28.481248   -28.481248   0.95801103 
  490000    1510.9162   -27.557676   -28.534182   -28.534182   0.97650625 
  491000    1479.4488   -27.883086   -28.839255   -28.839255   0.95616883 
  492000     1499.865   -27.451194   -28.420558   -28.420558   0.96936381 
  493000     1408.378   -27.607094    -28.51733    -28.51733   0.91023575 
  494000    1503.5835   -27.341761   -28.313528   -28.313528   0.97176711 
  495000    1656.8272   -27.565969   -28.636777   -28.636777    1.0708086 
  496000    1451.7075   -27.740034   -28.678274   -28.678274   0.93823963 
  497000     1474.809   -27.443501   -28.396671   -28.396671    0.9531701 
  498000    1435.3375   -27.960587   -28.888247   -28.888247   0.92765965 
  499000    1599.7071   -27.444224   -28.478116   -28.478116    1.0338918 
  500000    1499.3332   -27.468929   -28.437949   -28.437949   0.96902011 
  501000    1569.8952    -27.96937   -28.983994   -28.983994    1.0146244 
  502000    1513.4444   -27.809588   -28.787728   -28.787728   0.97814021 
  503000    1511.5945   -27.831261   -28.808206   -28.808206   0.97694463 
  504000    1501.9451   -27.755279   -28.725988   -28.725988   0.97070818 
  505000    1450.4852   -27.718955   -28.656405   -28.656405   0.93744963 
  506000    1547.6008   -27.729095   -28.729311   -28.729311    1.0002155 
  507000    1500.3787   -27.593813   -28.563508   -28.563508   0.96969583 
  508000    1592.3953   -27.715957   -28.745123   -28.745123    1.0291663 
  509000    1641.6538   -27.485669   -28.546671   -28.546671     1.061002 
  510000    1532.8767   -27.693709   -28.684409   -28.684409   0.99069933 
  511000     1498.829   -27.637208   -28.605902   -28.605902   0.96869428 
  512000    1541.7405   -27.695872     -28.6923     -28.6923   0.99642799 
  513000    1485.0999   -27.760616   -28.720437   -28.720437   0.95982114 
  514000    1578.0934   -27.593898   -28.613821   -28.613821    1.0199229 
  515000    1649.4462   -27.684255   -28.750294   -28.750294    1.0660383 
  516000     1514.302   -27.791021   -28.769716   -28.769716   0.97869448 
  517000    1506.5826   -27.868326   -28.842031   -28.842031   0.97370542 
  518000    1552.3902   -27.569898   -28.573209   -28.573209    1.0033109 
  519000    1585.6917   -27.359144   -28.383978   -28.383978    1.0248337 
  520000    1537.0615   -27.885283   -28.878687   -28.878687   0.99340399 
  521000    1544.9596   -27.190736   -28.189245   -28.189245   0.99850851 
  522000    1520.6035   -27.639868   -28.622635   -28.622635   0.98276717 
  523000    1574.8983   -27.829119   -28.846977   -28.846977    1.0178579 
  524000    1553.9456   -27.303683   -28.307999   -28.307999    1.0043162 
  525000    1551.5012    -28.13409   -29.136826   -29.136826    1.0027364 
  526000    1626.4158    -27.03252   -28.083674   -28.083674    1.0511537 
  527000    1535.8919   -27.923944   -28.916592   -28.916592   0.99264806 
  528000    1576.9525   -27.348828   -28.368014   -28.368014    1.0191856 
  529000     1575.099   -27.549683    -28.56767    -28.56767    1.0179876 
  530000    1637.6356   -27.522841   -28.581246   -28.581246    1.0584051 
  531000    1532.1413   -27.253516    -28.24374    -28.24374   0.99022401 
  532000    1631.4514   -28.021311   -29.075719   -29.075719    1.0544082 
  533000    1653.4665    -27.20691   -28.275547   -28.275547    1.0686366 
  534000    1557.9523   -27.790532   -28.797437   -28.797437    1.0069057 
  535000    1567.2739    -27.72011    -28.73304    -28.73304    1.0129303 
  536000    1606.0894   -27.221247   -28.259264   -28.259264    1.0380168 
  537000    1647.1785   -28.159898   -29.224471   -29.224471    1.0645727 
  538000    1592.5978   -26.929951   -27.959248   -27.959248    1.0292971 
  539000    1576.9368   -27.701586   -28.720761   -28.720761    1.0191754 
  540000    1689.7387   -27.561478   -28.653557   -28.653557    1.0920794 
  541000    1598.9534   -27.317541   -28.350946   -28.350946    1.0334047 
  542000     1586.405     -27.9353   -28.960594   -28.960594    1.0252947 
  543000    1542.2303   -26.923374   -27.920118   -27.920118   0.99674454 
  544000    1686.0223   -27.526856   -28.616534   -28.616534    1.0896775 
  545000    1675.6043   -27.423279   -28.506223   -28.506223    1.0829443 
  546000    1634.3567    -27.39191   -28.448196   -28.448196     1.056286 
  547000    1655.7878   -27.787533   -28.857669   -28.857669    1.0701369 
  548000    1538.3214   -26.853044   -27.847263   -27.847263   0.99421827 
  549000    1639.7253   -27.632456   -28.692211   -28.692211    1.0597557 
  550000    1630.2556   -27.678011   -28.731646   -28.731646    1.0536354 
  551000    1749.0559    -27.24272   -28.373136   -28.373136    1.1304161 
  552000    1692.1552   -27.721935   -28.815576   -28.815576    1.0936411 
  553000    1672.5589   -27.407152   -28.488128   -28.488128    1.0809761 
  554000    1628.2265   -27.253852   -28.306176   -28.306176     1.052324 
  555000    1596.7673   -27.687701   -28.719693   -28.719693    1.0319918 
  556000    1630.6007   -26.897301   -27.951159   -27.951159    1.0538584 
  557000    1623.1127    -27.66507   -28.714088   -28.714088    1.0490189 
  558000    1790.4627   -26.953992   -28.111169   -28.111169    1.1571773 
  559000    1640.6558   -27.345641   -28.405998   -28.405998     1.060357 
  560000    1694.7554   -27.609051   -28.704373   -28.704373    1.0953217 
  561000    1674.7113   -27.282522    -28.36489    -28.36489    1.0823671 
  562000    1717.0239   -27.514878   -28.624591   -28.624591    1.1097138 
  563000    1702.3678   -27.407224   -28.507465   -28.507465    1.1002415 
  564000    1725.1781   -27.678193   -28.793177   -28.793177    1.1149839 
  565000    1705.5446   -27.248021   -28.350316   -28.350316    1.1022947 
  566000    1695.3046   -27.392732   -28.488409   -28.488409    1.0956766 
  567000    1778.9702   -27.551823   -28.701573   -28.701573    1.1497497 
  568000    1703.8345   -27.257492   -28.358682   -28.358682    1.1011895 
  569000    1743.3752   -27.820205    -28.94695    -28.94695    1.1267446 
  570000    1623.1032   -27.352802   -28.401815   -28.401815    1.0490128 
  571000    1672.2447   -27.360679   -28.441452   -28.441452     1.080773 
  572000    1647.3184   -27.569069   -28.633732   -28.633732    1.0646631 
  573000    1746.8374   -26.956554   -28.085537   -28.085537    1.1289823 
  574000    1752.4731    -27.40063   -28.533255   -28.533255    1.1326247 
  575000    1751.3945   -27.336883   -28.468811   -28.468811    1.1319275 
  576000    1843.1103   -27.716656   -28.907859   -28.907859    1.1912035 
  577000    1677.5107   -27.220004   -28.304181   -28.304181    1.0841764 
  578000    1785.7252   -27.139869   -28.293985   -28.293985    1.1541155 
  579000     1698.107   -27.537285   -28.634773   -28.634773    1.0974878 
  580000    1711.9707   -27.046256   -28.152704   -28.152704    1.1064479 
  581000      1722.55   -27.217177   -28.330462   -28.330462    1.1132853 
  582000    1698.6418   -27.411302   -28.509135   -28.509135    1.0978335 
  583000    1830.8567   -27.447236    -28.63052    -28.63052     1.183284 
  584000    1734.1964   -27.516801   -28.637613   -28.637613    1.1208124 
  585000    1733.7366   -27.797993   -28.918508   -28.918508    1.1205152 
  586000    1771.6522   -27.144011   -28.289031   -28.289031    1.1450201 
  587000    1774.8669   -27.627442    -28.77454    -28.77454    1.1470978 
  588000    1711.5409   -27.434719   -28.540889   -28.540889    1.1061701 
  589000    1871.6801   -27.400277   -28.609945   -28.609945    1.2096682 
  590000    1727.4305   -27.484127   -28.600567   -28.600567    1.1164396 
  591000    1768.8035   -27.416495   -28.559674   -28.559674     1.143179 
  592000    1810.5655   -27.386825   -28.556995   -28.556995    1.1701698 
  593000    1714.2623   -27.069573   -28.177502   -28.177502    1.1079289 
  594000     1817.309   -27.952262    -29.12679    -29.12679    1.1745282 
  595000    1807.3854   -27.020963   -28.189078   -28.189078    1.1681145 
  596000    1830.8353   -27.806888   -28.990159   -28.990159    1.1832702 
  597000    1823.8521   -27.113454   -28.292211   -28.292211     1.178757 
  598000    1757.3851   -27.187072   -28.322872   -28.322872    1.1357993 
  599000    1775.8664   -27.542474   -28.690218   -28.690218    1.1477437 
  600000    1914.6177   -26.925262   -28.162681   -28.162681    1.2374188 
  601000    1724.0886   -27.601293   -28.715572   -28.715572    1.1142797 
  602000    1757.7649   -26.996037   -28.132082   -28.132082    1.1360447 
  603000    1734.7676   -27.222143   -28.343324   -28.343324    1.1211815 
  604000    1828.5427   -27.007214   -28.189002   -28.189002    1.1817884 
  605000    1712.8957   -27.077012   -28.184058   -28.184058    1.1070457 
  606000    1906.9677   -27.541527   -28.774002   -28.774002    1.2324746 
  607000    1779.3378   -26.847323    -27.99731    -27.99731    1.1499873 
  608000    1854.7033   -27.034842   -28.233538   -28.233538    1.1986961 
  609000    1905.7066   -27.553877   -28.785537   -28.785537    1.2316595 
  610000    1811.4323   -26.784282   -27.955012   -27.955012      1.17073 
  611000    1751.5257    -27.29071   -28.422723   -28.422723    1.1320123 
  612000    1869.4779   -27.067512   -28.275757   -28.275757    1.2082449 
  613000    1786.8856   -26.986384    -28.14125    -28.14125    1.1548655 
  614000    1755.8502   -27.319227   -28.454035   -28.454035    1.1348072 
  615000    1801.4932   -27.630473    -28.79478    -28.79478    1.1643064 
  616000    1866.3033   -27.111573   -28.317767   -28.317767    1.2061932 
  617000    1786.7618   -27.257444   -28.412229   -28.412229    1.1547854 
  618000    1796.9721    -27.30476   -28.466145   -28.466145    1.1613843 
  619000    1744.7085   -27.398101   -28.525707   -28.525707    1.1276064 
  620000    1808.9009   -27.347741   -28.516835   -28.516835     1.169094 
  621000    1929.5674    -26.70537    -27.95245    -27.95245    1.2470808 
  622000    1848.3247   -27.634507   -28.829081   -28.829081    1.1945736 
  623000    1859.8765   -27.280651   -28.482691   -28.482691    1.2020396 
  624000    1858.6353   -27.368857   -28.570095   -28.570095    1.2012373 
  625000    1897.9254   -27.744428   -28.971059   -28.971059    1.2266305 
  626000    1920.8331   -26.917941   -28.159377   -28.159377    1.2414358 
  627000    1829.9888     -27.6059   -28.788623   -28.788623    1.1827231 
  628000     1972.947    -27.48455   -28.759667   -28.759667    1.2751171 
  629000    1808.6735   -27.044179   -28.213126   -28.213126     1.168947 
  630000    1851.3416   -27.403597    -28.60012    -28.60012    1.1965234 
  631000    1852.8684   -27.332645   -28.530155   -28.530155    1.1975102 
  632000     1891.212   -27.065806   -28.288098   -28.288098    1.2222917 
  633000      1885.94   -27.456919   -28.675804   -28.675804    1.2188844 
  634000    1855.5495   -27.105385   -28.304628   -28.304628     1.199243 
  635000    2021.0512   -27.376764    -28.68297    -28.68297    1.3062068 
  636000    1882.6661   -27.210019   -28.426787   -28.426787    1.2167685 
  637000    1890.8473   -27.196309   -28.418365   -28.418365     1.222056 
  638000    1935.1611   -27.293506   -28.544202   -28.544202     1.250696 
  639000     1935.842   -26.778413    -28.02955    -28.02955    1.2511361 
  640000    1979.7469   -27.482899   -28.762411   -28.762411    1.2795118 
  641000    1859.3675   -27.061909   -28.263619   -28.263619    1.2017106 
  642000    1914.1749   -27.558952   -28.796084   -28.796084    1.2371326 
  643000    1926.3089   -27.246559   -28.491534   -28.491534    1.2449749 
  644000    1965.5726   -27.229504   -28.499855   -28.499855     1.270351 
  645000    2049.6751    -27.25584   -28.580546   -28.580546    1.3247065 
  646000     1943.021   -26.617164    -27.87294    -27.87294    1.2557759 
  647000    1894.3539   -27.524217   -28.748539   -28.748539    1.2243223 
  648000    1951.5557   -27.265998    -28.52729    -28.52729    1.2612919 
  649000    1875.3848   -27.175937      -28.388      -28.388    1.2120626 
  650000    1969.8531   -27.369699   -28.642817   -28.642817    1.2731175 
  651000    1985.0668   -27.077711   -28.360661   -28.360661    1.2829501 
  652000    1960.9483   -26.998822   -28.266185   -28.266185    1.2673623 
  653000    1925.9501   -27.369745   -28.614488   -28.614488     1.244743 
  654000    2079.0773   -26.894443   -28.238152   -28.238152    1.3437091 
  655000    1953.4609   -27.379535   -28.642058   -28.642058    1.2625232 
  656000    1938.4515   -27.199785   -28.452607   -28.452607    1.2528226 
  657000    1934.9219   -26.918513   -28.169054   -28.169054    1.2505414 
  658000    1864.6683   -27.570356   -28.775492   -28.775492    1.2051365 
  659000    1946.2991    -26.77937   -28.037264   -28.037264    1.2578945 
  660000    1951.5845    -27.31459   -28.575901   -28.575901    1.2613105 
  661000    2021.0805   -26.956566   -28.262792   -28.262792    1.3062258 
  662000    1983.3769   -27.134059   -28.415917   -28.415917     1.281858 
  663000    2031.8501   -27.310523   -28.623709   -28.623709    1.3131862 
  664000     1917.064   -26.461812   -27.700811   -27.700811    1.2389999 
  665000    2011.5088   -27.894815   -29.194854   -29.194854    1.3000396 
  666000    2058.2466   -25.387283   -26.717529   -26.717529    1.3302463 
  667000    1998.9883   -27.771563   -29.063511   -29.063511    1.2919476 
  668000    2093.2933   -26.734153    -28.08705    -28.08705     1.352897 
  669000    1967.4736   -26.892401    -28.16398    -28.16398    1.2715796 
  670000    1992.2206   -27.561464   -28.849037   -28.849037    1.2875736 
  671000    1952.9615   -26.485518   -27.747719   -27.747719    1.2622004 
  672000    2001.6089   -27.139113   -28.432754   -28.432754    1.2936413 
  673000    2068.9772   -27.643733   -28.980914   -28.980914    1.3371815 
  674000    2035.7805   -26.063422   -27.379148   -27.379148    1.3157264 
  675000    2021.0995   -27.629617   -28.935855   -28.935855    1.3062381 
  676000    2011.4897   -26.768645   -28.068672   -28.068672    1.3000273 
  677000    1991.8896   -27.269605   -28.556965   -28.556965    1.2873597 
  678000    2093.7546   -26.853683   -28.206878   -28.206878    1.3531951 
  679000    1991.6145    -26.93244   -28.219622   -28.219622    1.2871819 
  680000    2011.1908   -27.417932   -28.717766   -28.717766    1.2998341 
  681000    2123.8518   -26.973205   -28.345852   -28.345852     1.372647 
  682000    2053.8206   -27.363101   -28.690486   -28.690486    1.3273858 
  683000    2040.7502   -26.778775   -28.097714   -28.097714    1.3189383 
  684000    2034.6514   -27.099171   -28.414168   -28.414168    1.3149967 
  685000    2136.5318   -27.470357   -28.851199   -28.851199     1.380842 
  686000    2164.1499   -26.839624   -28.238316   -28.238316    1.3986916 
  687000    2064.3295   -27.381081   -28.715259   -28.715259    1.3341776 
  688000    2102.6043   -26.893954   -28.252869   -28.252869    1.3589147 
  689000    2011.3876   -26.741549    -28.04151    -28.04151    1.2999613 
  690000    2053.2131   -27.332718   -28.659711   -28.659711    1.3269931 
  691000    2103.7417   -26.548743   -27.908393   -27.908393    1.3596498 
  692000    1940.5029   -27.026049   -28.280197   -28.280197    1.2541485 
  693000    1960.4683   -27.155031   -28.422083   -28.422083    1.2670521 
  694000    2039.8787   -26.840569   -28.158945   -28.158945    1.3183751 
  695000    2067.9323   -27.368006   -28.704512   -28.704512    1.3365061 
  696000    2009.7346   -26.634181   -27.933074   -27.933074    1.2988929 
  697000     2042.253   -26.598091      -27.918      -27.918    1.3199096 
  698000    2155.1873   -27.017904   -28.410803   -28.410803    1.3928991 
  699000    2104.2896   -27.064756    -28.42476    -28.42476    1.3600039 
  700000    2092.8783   -26.864857   -28.217486   -28.217486    1.3526287 
  701000    2119.3917    -26.94113   -28.310894   -28.310894    1.3697644 
  702000    1950.4658   -27.020609   -28.281196   -28.281196    1.2605875 
  703000     2017.447   -26.373915   -27.677792   -27.677792    1.3038774 
  704000    2135.9964   -26.844288   -28.224784   -28.224784     1.380496 
  705000    2062.0349   -26.134673   -27.467368   -27.467368    1.3326946 
  706000    2041.5589   -26.483824   -27.803285   -27.803285     1.319461 
  707000    1981.3248   -26.762179   -28.042711   -28.042711    1.2805316 
  708000    2192.0785   -26.809435   -28.226176   -28.226176    1.4167419 
  709000    2042.7711   -26.773844   -28.094088   -28.094088    1.3202444 
  710000    2011.1953   -26.654723    -27.95456    -27.95456     1.299837 
  711000    1968.8451   -26.863188   -28.135654   -28.135654     1.272466 
  712000    2032.0224   -26.826308   -28.139606   -28.139606    1.3132975 
  713000    2145.6326   -26.787521   -28.174245   -28.174245    1.3867239 
  714000    2178.7082   -26.680141   -28.088242   -28.088242    1.4081007 
  715000    2103.8908   -26.983632   -28.343378   -28.343378    1.3597462 
  716000    2264.9668   -26.247931   -27.711781   -27.711781    1.4638497 
  717000    2057.2086   -26.635473   -27.965048   -27.965048    1.3295754 
  718000    2220.6531   -26.943344   -28.378553   -28.378553    1.4352097 
  719000    2216.4453     -26.7499    -28.18239    -28.18239    1.4324902 
  720000    2055.9785   -26.606978   -27.935759   -27.935759    1.3287804 
  721000     2321.316   -26.953708   -28.453976   -28.453976    1.5002682 
  722000    2383.4488   -25.992063   -27.532488   -27.532488    1.5404247 
  723000    2195.9013   -27.010189   -28.429402   -28.429402    1.4192126 
  724000    2201.5742   -26.377279   -27.800158   -27.800158     1.422879 
  725000    2277.0116   -26.732802   -28.204437   -28.204437    1.4716343 
  726000    2070.4511   -27.061985   -28.400119   -28.400119     1.338134 
  727000    2254.3027   -26.696487   -28.153445   -28.153445    1.4569575 
  728000    2259.1619   -27.472491   -28.932589   -28.932589     1.460098 
  729000    2169.2986   -26.590426   -27.992445   -27.992445    1.4020193 
  730000     2137.623   -27.416863    -28.79841    -28.79841    1.3815473 
  731000     2216.157   -25.943272   -27.375575   -27.375575    1.4323039 
  732000    2177.7055   -27.225207    -28.63266    -28.63266    1.4074527 
  733000    2189.5513    -26.85238   -28.267488   -28.267488    1.4151086 
  734000    2135.8415   -26.044709   -27.425105   -27.425105    1.3803959 
  735000     2218.043   -27.611596   -29.045119   -29.045119    1.4335228 
  736000    2266.7794   -26.420894   -27.885915   -27.885915    1.4650212 
  737000    2203.9254   -27.303609   -28.728007   -28.728007    1.4243986 
  738000     2343.817   -25.941214   -27.456025   -27.456025    1.5148106 
  739000    2167.7946   -26.741069   -28.142116   -28.142116    1.4010472 
  740000    2216.9889   -26.701103   -28.133944   -28.133944    1.4328415 
  741000    2127.3778   -26.535717   -27.910643   -27.910643    1.3749258 
  742000    2285.0706   -27.317936   -28.794779   -28.794779    1.4768428 
  743000    2172.5673   -25.824659   -27.228791   -27.228791    1.4041318 
  744000    2250.7879   -27.509785   -28.964471   -28.964471    1.4546858 
  745000    2354.8052   -26.482591   -28.004503   -28.004503    1.5219123 
  746000     2233.496   -26.731118   -28.174628   -28.174628    1.4435101 
  747000    2224.3094    -26.82658   -28.264153   -28.264153    1.4375728 
  748000    2300.0629   -26.321219   -27.807751   -27.807751    1.4865323 
  749000    2255.2763   -27.244585   -28.702172   -28.702172    1.4575867 
  750000    2317.9268   -26.371166   -27.869243   -27.869243    1.4980777 
  751000    2163.5922   -27.004839   -28.403171   -28.403171    1.3983312 
  752000    2438.6505   -26.249601   -27.825703   -27.825703    1.5761016 
  753000    2183.8249   -27.106653    -28.51806    -28.51806    1.4114076 
  754000    2247.9593   -26.931665   -28.384523   -28.384523    1.4528577 
  755000      2328.54     -26.1617   -27.666637   -27.666637    1.5049371 
  756000    2183.7118   -27.392892   -28.804226   -28.804226    1.4113345 
  757000     2371.547   -27.017498   -28.550231   -28.550231    1.5327325 
  758000    2101.4312   -25.558759   -26.916915   -26.916915    1.3581565 
  759000    2238.9418   -27.085933   -28.532963   -28.532963    1.4470297 
  760000    2274.3281   -26.605066   -28.074966   -28.074966    1.4698999 
  761000    2218.5241    -26.64418   -28.078014   -28.078014    1.4338337 
  762000    2475.1573   -27.159361   -28.759057   -28.759057    1.5996959 
  763000    2216.0991   -25.609367   -27.041634   -27.041634    1.4322665 
  764000    2321.0869   -27.185644   -28.685764   -28.685764    1.5001201 
  765000    2223.8552    -27.00319   -28.440469   -28.440469    1.4372792 
  766000    2199.9679   -26.447302   -27.869143   -27.869143    1.4218408 
  767000    2286.7343   -26.654704   -28.132622   -28.132622     1.477918 
  768000     2486.162   -26.452371   -28.059179   -28.059179    1.6068083 
  769000     2302.828   -27.162786   -28.651106   -28.651106    1.4883194 
  770000    2395.0414   -26.951234   -28.499151   -28.499151     1.547917 
  771000    2248.7735   -26.268153   -27.721537   -27.721537    1.4533839 
  772000    2343.7649   -26.450272   -27.965049   -27.965049    1.5147769 
  773000    2192.5001   -26.848114   -28.265128   -28.265128    1.4170144 
  774000    2250.4662   -26.699498   -28.153976   -28.153976    1.4544779 
  775000    2284.0947   -26.560887   -28.037099   -28.037099    1.4762121 
  776000    2416.0594   -26.546369    -28.10787    -28.10787    1.5615009 
  777000    2298.9255   -26.372542    -27.85834    -27.85834    1.4857972 
  778000    2452.1971   -26.925649   -28.510505   -28.510505    1.5848568 
  779000    2296.7085   -26.415414   -27.899778   -27.899778    1.4843644 
  780000    2270.9203   -27.408082   -28.875779   -28.875779    1.4676975 
  781000    2347.4862    -26.33809   -27.855272   -27.855272     1.517182 
  782000     2294.321   -26.685115   -28.167936   -28.167936    1.4828213 
  783000    2478.0371   -26.729034   -28.330592   -28.330592    1.6015572 
  784000    2361.8574   -26.619932   -28.146402   -28.146402    1.5264701 
  785000     2429.371   -27.066711   -28.636815   -28.636815    1.5701042 
  786000    2452.7285   -25.897309   -27.482509   -27.482509    1.5852002 
  787000     2370.702   -27.018447   -28.550634   -28.550634    1.5321864 
  788000    2264.2327    -26.75476   -28.218135   -28.218135    1.4633752 
  789000    2259.9692   -26.186395   -27.647014   -27.647014    1.4606197 
  790000    2382.1896   -26.479837   -28.019448   -28.019448    1.5396109 
  791000    2436.4586   -26.690816     -28.2655     -28.2655    1.5746849 
  792000    2418.8618   -26.519792   -28.083104   -28.083104    1.5633122 
  793000    2277.9438   -27.117838   -28.590075   -28.590075    1.4722367 
  794000    2399.7237   -26.312944   -27.863887   -27.863887    1.5509432 
  795000    2379.2921   -26.460738   -27.998476   -27.998476    1.5377382 
  796000     2329.485   -26.948147   -28.453695   -28.453695    1.5055478 
  797000    2381.6719    -25.95304   -27.492316   -27.492316    1.5392763 
  798000    2332.6632   -26.967302   -28.474904   -28.474904    1.5076019 
  799000    2604.2718    -26.61472   -28.297863   -28.297863    1.6831428 
  800000    2448.5499   -25.753026   -27.335526   -27.335526    1.5824996 
  801000    2431.6842   -27.404307   -28.975906   -28.975906    1.5715993 
  802000    2421.2951   -25.426311   -26.991195   -26.991195    1.5648848 
  803000    2347.4794   -27.030223   -28.547401   -28.547401    1.5171777 
  804000    2499.8062   -26.477292   -28.092919   -28.092919    1.6156266 
  805000    2435.6047   -26.244647    -27.81878    -27.81878    1.5741331 
  806000    2368.8242   -26.355598    -27.88657    -27.88657    1.5309728 
  807000    2318.5565   -25.762107   -27.260592   -27.260592    1.4984847 
  808000    2429.5621   -26.970544   -28.540772   -28.540772    1.5702278 
  809000    2470.9284   -26.371085   -27.968048   -27.968048    1.5969628 
  810000    2280.2429   -25.953746   -27.427468   -27.427468    1.4737226 
  811000     2513.968   -27.176775   -28.801554   -28.801554    1.6247793 
  812000    2490.2777   -26.256016   -27.865484   -27.865484    1.6094683 
  813000    2504.7714   -26.068626   -27.687461   -27.687461    1.6188356 
  814000    2392.8809   -27.030501   -28.577022   -28.577022    1.5465207 
  815000    2416.1798   -26.645995   -28.207573   -28.207573    1.5615788 
  816000     2321.606   -26.439201   -27.939657   -27.939657    1.5004557 
  817000    2313.4953    -26.72304   -28.218253   -28.218253    1.4952137 
  818000    2592.2411   -26.370836   -28.046203   -28.046203    1.6753673 
  819000    2578.4585   -26.662186   -28.328646   -28.328646    1.6664596 
  820000    2488.8018   -26.569927   -28.178441   -28.178441    1.6085144 
  821000    2396.5166   -25.774899    -27.32377    -27.32377    1.5488704 
  822000    2516.2977   -27.164562   -28.790847   -28.790847     1.626285 
  823000    2421.5598   -26.022904    -27.58796    -27.58796    1.5650559 
  824000    2531.7434   -26.974146   -28.610413   -28.610413    1.6362676 
  825000     2547.354   -26.511178   -28.157535   -28.157535    1.6463567 
  826000    2530.0052   -26.309038   -27.944182   -27.944182    1.6351442 
  827000    2488.3603   -27.296312   -28.904541   -28.904541    1.6082291 
  828000    2431.5131   -25.576897   -27.148386   -27.148386    1.5714886 
  829000    2557.1981   -26.733734   -28.386453   -28.386453     1.652719 
  830000     2576.682   -26.144587   -27.809898   -27.809898    1.6653115 
  831000    2435.5023   -25.827414   -27.401481   -27.401481    1.5740669 
  832000    2535.7224   -26.855367   -28.494206   -28.494206    1.6388392 
  833000    2559.6186   -26.562949   -28.217232   -28.217232    1.6542834 
  834000    2539.3683   -26.706845   -28.348041   -28.348041    1.6411956 
  835000    2408.7014   -26.822838   -28.379584   -28.379584    1.5567454 
  836000     2545.462   -26.025567   -27.670701   -27.670701    1.6451339 
  837000    2484.7777   -26.805136   -28.411049   -28.411049    1.6059136 
  838000    2602.9858   -26.716809   -28.399121   -28.399121    1.6823116 
  839000    2552.3768    -26.31311   -27.962713   -27.962713     1.649603 
  840000    2454.1915   -26.944715    -28.53086    -28.53086    1.5861458 
  841000    2494.4581   -26.472957   -28.085127   -28.085127    1.6121701 
  842000    2670.6426   -25.960807   -27.686845   -27.686845    1.7260382 
  843000    2645.6086   -26.585532   -28.295391   -28.295391    1.7098587 
  844000    2617.1842   -25.870438   -27.561926   -27.561926     1.691488 
  845000    2621.4683    -26.36663   -28.060886   -28.060886    1.6942569 
  846000    2527.5691   -27.100499   -28.734069   -28.734069    1.6335697 
  847000    2744.7117   -26.489443   -28.263353   -28.263353    1.7739092 
  848000    2402.0257   -26.348523   -27.900954   -27.900954    1.5524309 
  849000    2472.9495    -26.20928    -27.80755    -27.80755     1.598269 
  850000    2647.8428   -25.541047    -27.25235    -27.25235    1.7113027 
  851000    2658.2465   -26.930501   -28.648527   -28.648527    1.7180266 
  852000    2698.3575   -26.413502   -28.157453   -28.157453    1.7439504 
  853000     2585.127   -26.752445   -28.423214   -28.423214    1.6707694 
  854000    2521.3243   -27.082199   -28.711733   -28.711733    1.6295337 
  855000    2632.5029   -26.331702   -28.033091   -28.033091    1.7013885 
  856000    2307.4206   -26.003966   -27.495254   -27.495254    1.4912876 
  857000    2489.6554   -26.054426   -27.663492   -27.663492    1.6090661 
  858000    2743.8988   -26.393298   -28.166682   -28.166682    1.7733838 
  859000    2551.0631   -26.296019   -27.944773   -27.944773    1.6487539 
  860000    2455.5501    -26.87162   -28.458644   -28.458644    1.5870238 
  861000    2726.9681    -26.03019   -27.792632   -27.792632    1.7624415 
  862000    2534.2935   -26.453972   -28.091888   -28.091888    1.6379157 
  863000     2682.536    -25.35531   -27.089035   -27.089035     1.733725 
  864000    2644.5165   -26.571831   -28.280984   -28.280984    1.7091529 
  865000    2653.0357   -25.537559   -27.252218   -27.252218    1.7146589 
  866000    2764.3842   -26.734434   -28.521057   -28.521057    1.7866235 
  867000    2408.3375   -26.505081   -28.061591   -28.061591    1.5565103 
  868000    2320.8461   -25.417424   -26.917388   -26.917388    1.4999645 
  869000    2527.8578   -27.182327   -28.816083   -28.816083    1.6337563 
  870000    2549.6367   -25.646378    -27.29421    -27.29421     1.647832 
  871000    2633.2537   -26.527331   -28.229204   -28.229204    1.7018738 
  872000    2609.5627   -26.620369   -28.306931   -28.306931    1.6865623 
  873000    2769.4088   -24.805604   -26.595475   -26.595475    1.7898709 
  874000    2606.9501   -27.082623   -28.767497   -28.767497    1.6848738 
  875000    2670.7918   -25.346683   -27.072818   -27.072818    1.7261347 
  876000    2624.5984   -26.785569   -28.481849   -28.481849    1.6962798 
  877000    2725.9326   -26.338244   -28.100016   -28.100016    1.7617722 
  878000    2542.3287   -26.131294   -27.774403   -27.774403    1.6431089 
  879000    2666.4997   -26.459809    -28.18317    -28.18317    1.7233607 
  880000    2718.1114   -26.393401   -28.150118   -28.150118    1.7567174 
  881000    2718.1343   -26.451551   -28.208283   -28.208283    1.7567322 
  882000    2534.1247   -25.965876   -27.603682   -27.603682    1.6378066 
  883000    2739.8122   -25.462531   -27.233274   -27.233274    1.7707426 
  884000    2628.7086   -26.596494   -28.295431   -28.295431    1.6989363 
  885000    2690.4802   -26.704463   -28.443322   -28.443322    1.7388593 
  886000    2665.9639   -26.081429   -27.804444   -27.804444    1.7230144 
  887000    2654.4768   -26.899178   -28.614768   -28.614768    1.7155903 
  888000    2689.5068   -26.383919   -28.122149   -28.122149    1.7382302 
  889000    2603.5471   -26.029036    -27.71171    -27.71171    1.6826744 
  890000    2666.8498    -27.32449   -29.048077   -29.048077     1.723587 
  891000    2798.6756   -25.832116   -27.640902   -27.640902    1.8087861 
  892000    2430.0557   -26.259878   -27.830424   -27.830424    1.5705468 
  893000    2494.6985   -27.000228   -28.612553   -28.612553    1.6123255 
  894000    2555.6541   -25.053191   -26.704912   -26.704912    1.6517211 
  895000    2565.6451   -25.439536   -27.097714   -27.097714    1.6581783 
  896000    2701.0233   -26.209148   -27.954821   -27.954821    1.7456733 
  897000    2752.3741   -25.459551   -27.238413   -27.238413    1.7788614 
  898000    2842.8454   -26.327251   -28.164584   -28.164584    1.8373331 
  899000    2682.7422   -26.231696   -27.965554   -27.965554    1.7338583 
  900000    2754.8784   -26.428127   -28.208607   -28.208607    1.7804799 
  901000    2869.6204   -26.280229   -28.134867   -28.134867    1.8546377 
  902000    2637.9521   -26.360728   -28.065639   -28.065639    1.7049103 
  903000    2718.1592   -26.250844   -28.007592   -28.007592    1.7567482 
  904000    2631.4226   -26.651865   -28.352555   -28.352555    1.7006904 
  905000    2898.0447   -25.957257   -27.830266   -27.830266    1.8730084 
  906000    2727.4015   -26.661394   -28.424115   -28.424115    1.7627216 
  907000    2765.4752   -26.422052   -28.209381   -28.209381    1.7873286 
  908000    2633.3413   -25.830377   -27.532307   -27.532307    1.7019304 
  909000    2685.1064    -26.63612   -28.371506   -28.371506    1.7353862 
  910000     2820.546   -26.737719    -28.56064    -28.56064    1.8229209 
  911000    2703.7034   -26.547378   -28.294783   -28.294783    1.7474055 
  912000    2919.3348   -26.150021   -28.036789   -28.036789    1.8867682 
  913000    2677.6091   -26.534349   -28.264889   -28.264889    1.7305407 
  914000    2659.2536   -26.017414   -27.736092   -27.736092    1.7186775 
  915000     2786.865   -26.199403   -28.000556   -28.000556    1.8011529 
  916000    2830.8688   -26.741092   -28.570684   -28.570684    1.8295926 
  917000    2834.2148   -25.313892   -27.145647   -27.145647    1.8317551 
  918000    2716.1114   -26.539721   -28.295146   -28.295146    1.7554248 
  919000    2715.9417   -25.916705    -27.67202    -27.67202    1.7553151 
  920000     2934.824   -25.564011    -27.46079    -27.46079    1.8967789 
  921000    2792.9849   -26.789226   -28.594334   -28.594334    1.8051081 
  922000    2628.6829   -24.344384   -26.043304   -26.043304    1.6989197 
  923000    2891.2802   -26.892212   -28.760849   -28.760849    1.8686365 
  924000    2757.4415   -25.839611   -27.621747   -27.621747    1.7821365 
  925000    2591.4461   -25.580678   -27.255532   -27.255532    1.6748535 
  926000     2802.496   -26.543635    -28.35489    -28.35489    1.8112552 
  927000     2785.044   -25.927212   -27.727188   -27.727188     1.799976 
  928000    2735.5533   -26.240096   -28.008086   -28.008086    1.7679901 
  929000    2704.0001   -26.149745   -27.897342   -27.897342    1.7475972 
  930000     2494.635    -25.39599   -27.008275   -27.008275    1.6122844 
  931000    2820.1222   -26.711922   -28.534569   -28.534569     1.822647 
  932000    2796.0616   -25.618785   -27.425881   -27.425881    1.8070967 
  933000     2997.178   -26.472768   -28.409846   -28.409846    1.9370783 
  934000    2773.1943   -26.462982     -28.2553     -28.2553    1.7923175 
  935000    2851.0408    -25.83988   -27.682509   -27.682509    1.8426297 
  936000    2839.5226   -26.127172   -27.962358   -27.962358    1.8351855 
  937000    2991.5717    -26.44046   -28.373915   -28.373915     1.933455 
  938000    2708.0215   -25.444188   -27.194384   -27.194384    1.7501962 
  939000    2761.6789   -26.978651   -28.763526   -28.763526    1.7848751 
  940000    2814.5994   -26.375186   -28.194264   -28.194264    1.8190776 
  941000    2695.0641   -25.552175   -27.293997   -27.293997    1.7418219 
  942000    2945.0939   -25.722176   -27.625593   -27.625593    1.9034163 
  943000    2863.9526   -25.837855   -27.688829   -27.688829    1.8509746 
  944000    2842.4006   -26.826231   -28.663276   -28.663276    1.8370456 
  945000    2894.6782   -25.855599   -27.726431   -27.726431    1.8708326 
  946000    2953.4485   -24.954661   -26.863477   -26.863477    1.9088159 
  947000     2751.785   -26.003023   -27.781504   -27.781504    1.7784806 
  948000    2878.0221   -26.591277   -28.451345   -28.451345    1.8600678 
  949000     2833.142   -25.800549    -27.63161    -27.63161    1.8310617 
  950000      2822.86   -26.526117   -28.350534   -28.350534    1.8244165 
  951000    2587.6371   -25.479331   -27.151723   -27.151723    1.6723917 
  952000    2744.2426   -25.473973   -27.247579   -27.247579     1.773606 
  953000    2744.1541   -26.036376   -27.809925   -27.809925    1.7735488 
  954000    2743.0711   -25.600905   -27.373754   -27.373754    1.7728489 
  955000     2942.836   -26.782051   -28.684008   -28.684008     1.901957 
  956000    2857.6881   -25.745104    -27.59203    -27.59203    1.8469259 
  957000    2800.5401   -25.767273   -27.577264   -27.577264    1.8099911 
  958000    2907.3096   -25.925779   -27.804775   -27.804775    1.8789963 
  959000    3017.6415   -25.767271   -27.717575   -27.717575    1.9503039 
  960000    2908.2702   -25.856771   -27.736388   -27.736388    1.8796171 
  961000    2885.1713   -26.619501   -28.484189   -28.484189    1.8646883 
  962000    2973.1277   -26.150116    -28.07165    -28.07165    1.9215346 
  963000    2853.9553   -26.115981   -27.960494   -27.960494    1.8445133 
  964000    2870.4475   -25.809074   -27.664246   -27.664246    1.8551723 
  965000    2941.7688   -26.582194   -28.483462   -28.483462    1.9012673 
  966000    3055.1692   -26.005075   -27.979633   -27.979633    1.9745581 
  967000    2832.9151   -26.454236   -28.285151   -28.285151    1.8309151 
  968000    2918.1541   -25.481238   -27.367243   -27.367243    1.8860051 
  969000    2823.7735   -25.823652   -27.648659   -27.648659    1.8250069 
  970000    2917.6507   -26.992347   -28.878027   -28.878027    1.8856798 
  971000    3044.2828   -23.789743   -25.757265   -25.757265    1.9675222 
  972000    2861.7404   -27.011916   -28.861461   -28.861461    1.8495449 
  973000    3050.1933   -26.132358     -28.1037     -28.1037    1.9713422 
  974000    3076.1196   -25.209001   -27.197099   -27.197099    1.9880983 
  975000    2751.8021   -26.991535   -28.770026   -28.770026    1.7784917 
  976000    2970.4515   -25.101832   -27.021637   -27.021637    1.9198049 
  977000    2785.9577   -26.204905   -28.005471   -28.005471    1.8005665 
  978000    3033.6097   -26.112054   -28.072679   -28.072679    1.9606241 
  979000    2999.5909   -24.539342    -26.47798    -26.47798    1.9386378 
  980000    2979.2106   -26.279583   -28.205049   -28.205049     1.925466 
  981000    2810.5181   -25.296576   -27.113015   -27.113015    1.8164399 
  982000    3009.5843   -25.550452   -27.495548   -27.495548    1.9450965 
  983000    3068.4212   -26.278525   -28.261648   -28.261648    1.9831228 
  984000    3078.8555   -25.055129   -27.044996   -27.044996    1.9898665 
  985000    2895.7968   -26.235719   -28.107274   -28.107274    1.8715556 
  986000    3091.6216   -25.301659   -27.299776   -27.299776    1.9981173 
  987000    2919.9104   -25.613642   -27.500783   -27.500783    1.8871402 
  988000    3029.6916   -26.988124   -28.946216   -28.946216    1.9580919 
  989000    3039.1325   -25.592671   -27.556865   -27.556865    1.9641935 
  990000    2930.3177   -26.108082   -28.001949   -28.001949    1.8938665 
  991000     2959.657   -26.038378   -27.951206   -27.951206    1.9128285 
  992000    2942.3121   -25.946578   -27.848197   -27.848197    1.9016184 
  993000    3070.1492   -26.648685   -28.632925   -28.632925    1.9842397 
  994000    3007.4992   -24.933549   -26.877298   -26.877298    1.9437489 
  995000    2869.4382   -26.756817   -28.611337   -28.611337      1.85452 
  996000    2925.3418   -25.617279   -27.507929   -27.507929    1.8906505 
  997000     2756.046    -24.98744   -26.768674   -26.768674    1.7812346 
  998000    2817.7217   -26.444696   -28.265792   -28.265792    1.8210956 
  999000    3188.8225   -24.387871   -26.448809   -26.448809    2.0609383 
 1000000    3074.8694   -26.502509   -28.489799   -28.489799    1.9872903 
Loop time of 12.2683 on 1 procs for 1000000 steps with 6 atoms

Performance: 704.254 ns/day, 0.034 hours/ns, 81510.835 timesteps/s
97.7% CPU use with 1 MPI tasks x 1 OpenMP threads

MPI task timing breakdown:
Section |  min time  |  avg time  |  max time  |%varavg| %total
---------------------------------------------------------------
Pair    | 9.9148     | 9.9148     | 9.9148     |   0.0 | 80.82
Neigh   | 0.060023   | 0.060023   | 0.060023   |   0.0 |  0.49
Comm    | 0.45504    | 0.45504    | 0.45504    |   0.0 |  3.71
Output  | 0.24048    | 0.24048    | 0.24048    |   0.0 |  1.96
Modify  | 1.2903     | 1.2903     | 1.2903     |   0.0 | 10.52
Other   |            | 0.3077     |            |       |  2.51

Nlocal:        6.00000 ave           6 max           6 min
Histogram: 1 0 0 0 0 0 0 0 0 0
Nghost:        42.0000 ave          42 max          42 min
Histogram: 1 0 0 0 0 0 0 0 0 0
Neighs:         0.00000 ave           0 max           0 min
Histogram: 1 0 0 0 0 0 0 0 0 0
FullNghs:      30.0000 ave          30 max          30 min
Histogram: 1 0 0 0 0 0 0 0 0 0

Total # of neighbors = 30
Ave neighs/atom = 5.0000000
Neighbor list builds = 1342
Dangerous builds = 0
write_restart 	./endconf/endconf*1.restart
System init for write_restart ...

#==============Constant Temp Phase==================

# Minimize during the constant temperature phase
min_style       sd
minimize        1.0e-5 1.0e-7 500 1000
Per MPI rank memory allocation (min/avg/max) = 6.318 | 6.318 | 6.318 Mbytes
[...]
 1853000    738.75127   -29.615838   -30.093293   -30.093293   0.47745548 
 1854000    715.09438   -29.924784    -30.38695    -30.38695   0.46216601 
 1855000    678.40933   -29.878127   -30.316584   -30.316584   0.43845644 
 1856000    736.67878   -29.841437   -30.317553   -30.317553   0.47611603 
 1857000    771.43047   -29.972709   -30.471285   -30.471285   0.49857607 
 1858000    691.80298    -29.71484   -30.161953   -30.161953   0.44711277 
 1859000    739.69411     -29.7534   -30.231465   -30.231465   0.47806484 
 1860000    779.45878   -29.679717   -30.183482   -30.183482   0.50376478 
 1861000    701.63163   -29.985397   -30.438862   -30.438862   0.45346503 
 1862000     705.8949   -29.940213   -30.396433   -30.396433   0.45622039 
 1863000    746.47626   -29.938764   -30.421212   -30.421212   0.48244815 
 1864000    709.42031   -29.581675   -30.040174   -30.040174   0.45849886 
 1865000    664.89955   -29.808178   -30.237903   -30.237903   0.42972506 
 1866000    782.05997   -29.948709   -30.454155   -30.454155   0.50544593 
 1867000    641.04951    -29.87879   -30.293101   -30.293101   0.41431076 
 1868000     725.6279   -29.957204   -30.426178   -30.426178   0.46897384 
 1869000    652.89149   -29.941197   -30.363161   -30.363161   0.42196424 
 1870000    714.39083   -29.715142   -30.176853   -30.176853   0.46171131 
 1871000     649.8569   -29.853469   -30.273472   -30.273472   0.42000298 
 1872000    768.42457   -29.984268   -30.480901   -30.480901   0.49663335 
 1873000    630.80309   -29.831587   -30.239275   -30.239275   0.40768849 
 1874000    735.87374   -29.668029   -30.143625   -30.143625   0.47559573 
 1875000    629.40814   -29.899884   -30.306671   -30.306671   0.40678694 
 1876000    675.84283   -29.702795   -30.139593   -30.139593   0.43679771 
 1877000    709.56994   -30.048923   -30.507519   -30.507519   0.45859556 
 1878000    662.93332   -29.752181   -30.180636   -30.180636   0.42845429 
 1879000    663.22235   -29.880837   -30.309478   -30.309478   0.42864108 
 1880000    656.04374   -29.924308    -30.34831    -30.34831   0.42400154 
 1881000    658.21527   -29.701562   -30.126967   -30.126967   0.42540501 
 1882000    664.87514   -29.892011    -30.32172    -30.32172   0.42970928 
 1883000     604.7844   -29.921319   -30.312192   -30.312192   0.39087259 
 1884000    608.35939   -29.869937    -30.26312    -30.26312   0.39318311 
 1885000    681.70945   -29.891458   -30.332047   -30.332047   0.44058931 
 1886000    634.41887   -29.799073   -30.209099   -30.209099   0.41002537 
 1887000    629.65017   -30.042325   -30.449269   -30.449269   0.40694336 
 1888000    618.60073    -29.96426   -30.364063   -30.364063    0.3998021 
 1889000    649.99203   -29.869708   -30.289798   -30.289798   0.42009032 
 1890000    637.51192   -29.934437   -30.346462   -30.346462   0.41202442 
 1891000    612.17604    -29.91277    -30.30842    -30.30842   0.39564982 
 1892000    630.84478   -30.004092   -30.411808   -30.411808   0.40771544 
 1893000    614.72538   -29.974758   -30.372056   -30.372056   0.39729746 
 1894000    596.40552   -30.045568   -30.431025   -30.431025   0.38545732 
 1895000    666.98742   -29.991396    -30.42247    -30.42247   0.43107446 
 1896000    578.41942   -29.985623   -30.359456   -30.359456   0.37383289 
 1897000    605.85921   -30.046302   -30.437869   -30.437869   0.39156725 
 1898000    620.42101   -29.966736   -30.367715   -30.367715   0.40097855 
 1899000     620.8368   -30.034815   -30.436062   -30.436062   0.40124728 
 1900000    595.72216   -30.058039   -30.443055   -30.443055   0.38501566 
 1901000    614.39035   -30.009769    -30.40685    -30.40685   0.39708093 
 1902000    593.80328   -30.116669   -30.500445   -30.500445   0.38377549 
 1903000    605.01391   -30.015245   -30.406266   -30.406266   0.39102093 
 1904000    557.21471   -30.102994   -30.463122   -30.463122   0.36012827 
 1905000    580.45103   -30.034469   -30.409615   -30.409615   0.37514592 
 1906000    555.95501   -30.035385   -30.394699   -30.394699   0.35931412 
 1907000    593.79841   -29.990948    -30.37472    -30.37472   0.38377234 
 1908000    577.38763   -30.043875   -30.417041   -30.417041   0.37316604 
 1909000    576.76576   -30.061102   -30.433867   -30.433867   0.37276413 
 1910000    575.20328   -30.048105   -30.419859   -30.419859    0.3717543 
 1911000    562.51581   -30.088808   -30.452362   -30.452362   0.36355437 
 1912000    566.05108   -30.092621   -30.458461   -30.458461   0.36583923 
 1913000     560.6434   -30.079727   -30.442071   -30.442071   0.36234424 
 1914000    559.25547   -30.089311   -30.450758   -30.450758   0.36144722 
 1915000    565.24237    -30.12337   -30.488686   -30.488686   0.36531656 
 1916000    558.69925   -30.088222    -30.44931    -30.44931   0.36108773 
 1917000    543.43947   -30.118436   -30.469661   -30.469661   0.35122532 
 1918000     530.3813   -30.104943   -30.447729   -30.447729   0.34278582 
 1919000    545.02868   -30.090682   -30.442934   -30.442934   0.35225243 
 1920000    533.27308   -30.075318   -30.419972   -30.419972   0.34465478 
 1921000    546.00022   -30.113788   -30.466669   -30.466669   0.35288034 
 1922000    542.37056   -30.131242   -30.481776   -30.481776   0.35053449 
 1923000     537.4253   -30.104846   -30.452185   -30.452185   0.34733836 
 1924000    526.05922   -30.149681   -30.489673   -30.489673   0.33999246 
 1925000    529.74144   -30.154644   -30.497016   -30.497016   0.34237227 
 1926000    507.19569   -30.128977   -30.456778   -30.456778   0.32780094 
 1927000    516.74616   -30.138256   -30.472229   -30.472229   0.33397342 
 1928000    502.88731   -30.137501   -30.462518   -30.462518   0.32501643 
 1929000    520.66234   -30.111074   -30.447579   -30.447579   0.33650445 
 1930000    507.33897   -30.141662   -30.469555   -30.469555   0.32789354 
 1931000    519.19757   -30.156524   -30.492082   -30.492082   0.33555776 
 1932000    504.90387    -30.15162    -30.47794    -30.47794   0.32631973 
 1933000     506.3819   -30.147792   -30.475067   -30.475067   0.32727499 
 1934000    491.71665   -30.196243    -30.51404    -30.51404   0.31779683 
 1935000    504.85748   -30.156394   -30.482684   -30.482684   0.32628975 
 1936000    486.58591   -30.189543   -30.504024   -30.504024   0.31448083 
 1937000     479.4289   -30.172222   -30.482077   -30.482077   0.30985525 
 1938000     483.7588   -30.167218   -30.479871   -30.479871   0.31265366 
 1939000    483.92591   -30.156585   -30.469347   -30.469347   0.31276166 
 1940000    480.93125   -30.182238   -30.493064   -30.493064   0.31082621 
 1941000    484.67779   -30.165557   -30.478805   -30.478805   0.31324761 
 1942000    474.60748   -30.195162   -30.501901   -30.501901   0.30673916 
 1943000    472.47575   -30.203366   -30.508728   -30.508728   0.30536142 
 1944000    475.59329   -30.180856   -30.488232   -30.488232   0.30737629 
 1945000     468.6791   -30.202341   -30.505249   -30.505249   0.30290764 
 1946000    464.12035   -30.216364   -30.516325   -30.516325   0.29996132 
 1947000    463.60652   -30.174583   -30.474213   -30.474213   0.29962923 
 1948000    466.20545   -30.217077   -30.518386   -30.518386   0.30130892 
 1949000    463.71171   -30.186213    -30.48591    -30.48591   0.29969721 
 1950000    451.83069   -30.238617   -30.530635   -30.530635    0.2920185 
 1951000    458.14036   -30.214002   -30.510098   -30.510098   0.29609645 
 1952000    454.11618   -30.244191   -30.537687   -30.537687   0.29349562 
 1953000    443.45621   -30.232378   -30.518984   -30.518984   0.28660607 
 1954000    436.67741   -30.241317   -30.523542   -30.523542   0.28222493 
 1955000    432.20716     -30.2081   -30.487436   -30.487436    0.2793358 
 1956000    438.31134   -30.237131   -30.520412   -30.520412   0.28328094 
 1957000     432.1596    -30.23414   -30.513445   -30.513445   0.27930506 
 1958000    436.35916   -30.255185   -30.537204   -30.537204   0.28201924 
 1959000    423.14575   -30.262373   -30.535853   -30.535853   0.27347941 
 1960000    423.79243    -30.24551   -30.519407   -30.519407   0.27389735 
 1961000    419.20706   -30.278025   -30.548959   -30.548959   0.27093383 
 1962000    414.72227   -30.230125    -30.49816    -30.49816    0.2680353 
 1963000    412.26466   -30.277408   -30.543855   -30.543855   0.26644695 
 1964000    412.53043   -30.234617   -30.501236   -30.501236   0.26661872 
 1965000    412.62187   -30.275319   -30.541996   -30.541996   0.26667781 
 1966000    406.35299   -30.249517   -30.512143   -30.512143   0.26262623 
 1967000    401.25262   -30.284615   -30.543945   -30.543945   0.25932986 
 1968000    395.30984   -30.262569   -30.518058   -30.518058   0.25548903 
 1969000    393.52171   -30.273493   -30.527827   -30.527827   0.25433336 
 1970000    384.93756   -30.278206   -30.526992   -30.526992   0.24878543 
 1971000    387.54708   -30.275614   -30.526086   -30.526086   0.25047196 
 1972000    377.08702   -30.290584   -30.534296   -30.534296   0.24371162 
 1973000    377.55233   -30.290779   -30.534791   -30.534791   0.24401235 
 1974000     376.7219   -30.303031   -30.546507   -30.546507   0.24347563 
 1975000     377.7255   -30.308099   -30.552224   -30.552224   0.24412427 
 1976000    373.96146   -30.318099    -30.55979    -30.55979   0.24169156 
 1977000    368.20079   -30.318333   -30.556302   -30.556302   0.23796844 
 1978000    365.83553    -30.30246   -30.538899   -30.538899   0.23643977 
 1979000    367.44937   -30.314117     -30.5516     -30.5516   0.23748279 
 1980000    363.42624   -30.310017     -30.5449     -30.5449   0.23488265 
 1981000    357.91028   -30.321122   -30.552439   -30.552439   0.23131767 
 1982000    351.48344   -30.319448   -30.546612   -30.546612     0.227164 
 1983000    350.17333   -30.331976   -30.558293   -30.558293   0.22631728 
 1984000    345.22326   -30.336325   -30.559443   -30.559443   0.22311804 
 1985000    345.03628   -30.345947   -30.568944   -30.568944    0.2229972 
 1986000    342.27401   -30.344255   -30.565467   -30.565467   0.22121194 
 1987000     340.4114    -30.33829   -30.558298   -30.558298   0.22000814 
 1988000     339.7586   -30.338982   -30.558568   -30.558568   0.21958623 
 1989000    333.73298    -30.34774   -30.563432   -30.563432   0.21569187 
 1990000    327.73476   -30.352572   -30.564387   -30.564387   0.21181521 
 1991000    323.64844    -30.36503   -30.574204   -30.574204   0.20917422 
 1992000    322.95524   -30.356617   -30.565344   -30.565344    0.2087262 
 1993000    324.09522   -30.368493   -30.577956   -30.577956   0.20946298 
 1994000    320.77803    -30.36453   -30.571849   -30.571849   0.20731907 
 1995000     316.4458   -30.364542   -30.569061   -30.569061   0.20451915 
 1996000      309.529   -30.372489   -30.572538   -30.572538   0.20004882 
 1997000    308.66191   -30.376878   -30.576366   -30.576366   0.19948842 
 1998000    306.61169    -30.39133   -30.589493   -30.589493   0.19816336 
 1999000    304.35713   -30.383808   -30.580514   -30.580514   0.19670624 
 2000000    301.19465   -30.382603   -30.577265   -30.577265   0.19466232 
 2001000    295.43383   -30.386277   -30.577216   -30.577216    0.1909391 
 2002000    293.87113   -30.395982   -30.585911   -30.585911   0.18992912 
 2003000    291.31505   -30.405612   -30.593889   -30.593889   0.18827713 
 2004000    290.29241    -30.39996   -30.587576   -30.587576   0.18761619 
 2005000    285.66563    -30.39897   -30.583595   -30.583595   0.18462591 
 2006000    279.69855   -30.409853   -30.590623   -30.590623   0.18076938 
 2007000    278.98054   -30.415697   -30.596002   -30.596002   0.18030533 
 2008000    277.47407   -30.415493   -30.594824   -30.594824   0.17933169 
 2009000    274.03683   -30.412782   -30.589892   -30.589892    0.1771102 
 2010000    269.24144    -30.42187   -30.595881   -30.595881   0.17401094 
 2011000    267.22466    -30.43359   -30.606297   -30.606297   0.17270749 
 2012000    264.74884   -30.428825   -30.599932   -30.599932   0.17110737 
 2013000    260.47877   -30.426462   -30.594809   -30.594809   0.16834762 
 2014000    257.03737   -30.438519   -30.604643   -30.604643   0.16612344 
 2015000    255.13976   -30.441684   -30.606581   -30.606581   0.16489701 
 2016000    252.94541   -30.435792   -30.599271   -30.599271    0.1634788 
 2017000    248.50337   -30.446523   -30.607131   -30.607131   0.16060791 
 2018000    246.92841   -30.454458   -30.614048   -30.614048   0.15959001 
 2019000    243.84322    -30.44784   -30.605436   -30.605436   0.15759605 
 2020000    239.64543   -30.455381   -30.610265   -30.610265   0.15488301 
 2021000    237.67934   -30.465672   -30.619284   -30.619284   0.15361233 
 2022000    235.22888   -30.461412   -30.613441   -30.613441    0.1520286 
 2023000    229.45944   -30.461988   -30.610288   -30.610288    0.1482998 
 2024000    230.17546   -30.471759   -30.620521   -30.620521   0.14876257 
 2025000    225.91924   -30.474489   -30.620501   -30.620501   0.14601177 
 2026000    220.45926   -30.477439   -30.619921   -30.619921   0.14248298 
 2027000    219.82738   -30.478884   -30.620958   -30.620958   0.14207459 
 2028000     216.4092   -30.479846   -30.619712   -30.619712   0.13986542 
 2029000     212.9148   -30.491612   -30.629219   -30.629219   0.13760699 
 2030000    210.80769   -30.488096   -30.624341   -30.624341   0.13624516 
 2031000    206.37412   -30.494123   -30.627503   -30.627503   0.13337974 
 2032000    205.13064   -30.498944    -30.63152    -30.63152   0.13257608 
 2033000    200.85507   -30.496658   -30.626471   -30.626471   0.12981278 
 2034000    198.62265   -30.505071   -30.633441   -30.633441   0.12836996 
 2035000    196.48323   -30.504548   -30.631535   -30.631535   0.12698725 
 2036000    191.59145   -30.513658   -30.637483   -30.637483   0.12382569 
 2037000    189.94993     -30.5139   -30.636665   -30.636665   0.12276478 
 2038000     184.6977    -30.51757    -30.63694    -30.63694   0.11937026 
 2039000    183.59093   -30.519358   -30.638013   -30.638013   0.11865495 
 2040000    179.05696   -30.523775   -30.639499   -30.639499   0.11572464 
 2041000     177.4745   -30.529421   -30.644123   -30.644123    0.1147019 
 2042000    173.44039   -30.529646   -30.641741   -30.641741   0.11209465 
 2043000    172.37776   -30.534091   -30.645499   -30.645499   0.11140787 
 2044000    167.78814   -30.536447   -30.644889   -30.644889   0.10844159 
 2045000    166.09779   -30.541304   -30.648653   -30.648653   0.10734912 
 2046000     161.2989   -30.544416   -30.648664   -30.648664    0.1042476 
 2047000    159.91763   -30.545696   -30.649051   -30.649051   0.10335488 
 2048000    156.39299   -30.551183    -30.65226    -30.65226    0.1010769 
 2049000    153.98983   -30.554583   -30.654107   -30.654107   0.09952374 
 2050000    150.27959   -30.560911   -30.658037   -30.658037  0.097125805 
 2051000    147.25018   -30.560715   -30.655883   -30.655883  0.095167896 
 2052000    144.20259   -30.565772    -30.65897    -30.65897  0.093198237 
 2053000     140.3698   -30.566998   -30.657719   -30.657719    0.0907211 
 2054000    138.80442   -30.572796   -30.662506   -30.662506    0.0897094 
 2055000     134.9734   -30.578202   -30.665436   -30.665436  0.087233405 
 2056000    132.01148   -30.579286   -30.664605   -30.664605  0.085319116 
 2057000    129.51294   -30.585094   -30.668799   -30.668799  0.083704305 
 2058000    125.96067   -30.588026   -30.669435   -30.669435  0.081408475 
 2059000     123.6705   -30.588707   -30.668635   -30.668635  0.079928337 
 2060000     120.4155   -30.593456   -30.671281   -30.671281  0.077824625 
 2061000     116.6857   -30.596967   -30.672381   -30.672381  0.075414051 
 2062000    114.28566   -30.599423   -30.673286   -30.673286  0.073862908 
 2063000    111.73787   -30.604738   -30.676955   -30.676955  0.072216269 
 2064000    107.74424     -30.6081   -30.677735   -30.677735  0.069635178 
 2065000    104.89523   -30.610475   -30.678269   -30.678269  0.067793866 
 2066000    102.72793   -30.613989   -30.680382   -30.680382  0.066393138 
 2067000     99.23728   -30.619074   -30.683211   -30.683211  0.064137126 
 2068000    95.859175   -30.621489   -30.683443   -30.683443  0.061953854 
 2069000    92.984606   -30.624965   -30.685061   -30.685061  0.060096018 
 2070000    90.683891   -30.627718   -30.686328   -30.686328  0.058609064 
 2071000     87.24291   -30.632786   -30.689171   -30.689171  0.056385156 
 2072000     84.21116   -30.637211   -30.691637   -30.691637  0.054425734 
 2073000    80.931857   -30.638993   -30.691299   -30.691299  0.052306318 
 2074000    77.950168   -30.642875   -30.693254   -30.693254   0.05037925 
 2075000    75.305739    -30.64511   -30.693781   -30.693781  0.048670154 
 2076000    72.286716   -30.650253   -30.696972   -30.696972  0.046718957 
 2077000    69.315634   -30.653148   -30.697947   -30.697947  0.044798745 
 2078000    66.287504   -30.658028    -30.70087    -30.70087  0.042841662 
 2079000    63.110469   -30.660769   -30.701557   -30.701557  0.040788342 
 2080000    60.053678   -30.664967    -30.70378    -30.70378  0.038812735 
 2081000    57.008083   -30.667893   -30.704737   -30.704737  0.036844365 
 2082000    54.042299   -30.671142   -30.706069   -30.706069  0.034927577 
 2083000     51.08039   -30.675037    -30.70805    -30.70805  0.033013293 
 2084000    48.145749   -30.678527   -30.709644   -30.709644  0.031116632 
 2085000    45.113786    -30.68223   -30.711387   -30.711387  0.029157073 
 2086000     42.02553   -30.686124   -30.713286   -30.713286  0.027161131 
 2087000    39.060898   -30.689647   -30.714893   -30.714893  0.025245087 
 2088000    36.137578   -30.692953   -30.716309   -30.716309  0.023355743 
 2089000    33.130864   -30.696719   -30.718132   -30.718132  0.021412501 
 2090000    30.100302   -30.700524   -30.719978   -30.719978  0.019453847 
 2091000    27.171385   -30.704244   -30.721805   -30.721805  0.017560886 
 2092000    24.185977   -30.707905   -30.723536   -30.723536  0.015631415 
 2093000    21.110419   -30.711754   -30.725398   -30.725398  0.013643679 
 2094000    18.151317    -30.71574   -30.727472   -30.727472   0.01173121 
 2095000    15.259406   -30.719339   -30.729201   -30.729201 0.0098621652 
 2096000     12.19261   -30.722963   -30.730843   -30.730843 0.0078800925 
 2097000    9.1652446   -30.726982   -30.732905   -30.732905 0.0059235042 
 2098000    6.2093605   -30.730723   -30.734736   -30.734736 0.0040131142 
 2099000    3.1927106   -30.734569   -30.736632   -30.736632 0.0020634512 
 2100000   0.18471801   -30.738257   -30.738376   -30.738376 0.00011938338 
 2100047  0.037907835   -30.738396   -30.738421   -30.738421 2.4499861e-05 
Loop time of 14.0941 on 1 procs for 1000000 steps with 6 atoms

Performance: 613.023 ns/day, 0.039 hours/ns, 70951.789 timesteps/s
98.7% CPU use with 1 MPI tasks x 1 OpenMP threads

MPI task timing breakdown:
Section |  min time  |  avg time  |  max time  |%varavg| %total
---------------------------------------------------------------
Pair    | 11.817     | 11.817     | 11.817     |   0.0 | 83.85
Neigh   | 0.0015136  | 0.0015136  | 0.0015136  |   0.0 |  0.01
Comm    | 0.44829    | 0.44829    | 0.44829    |   0.0 |  3.18
Output  | 0.24152    | 0.24152    | 0.24152    |   0.0 |  1.71
Modify  | 1.2777     | 1.2777     | 1.2777     |   0.0 |  9.07
Other   |            | 0.3076     |            |       |  2.18

Nlocal:        6.00000 ave           6 max           6 min
Histogram: 1 0 0 0 0 0 0 0 0 0
Nghost:        42.0000 ave          42 max          42 min
Histogram: 1 0 0 0 0 0 0 0 0 0
Neighs:         0.00000 ave           0 max           0 min
Histogram: 1 0 0 0 0 0 0 0 0 0
FullNghs:      30.0000 ave          30 max          30 min
Histogram: 1 0 0 0 0 0 0 0 0 0

Total # of neighbors = 30
Ave neighs/atom = 5.0000000
Neighbor list builds = 32
Dangerous builds = 0
write_restart 	./endconf/endconf*3.restart
System init for write_restart ...

Total wall time: 0:00:27
