LAMMPS (29 Sep 2021 - Update 2)
OMP_NUM_THREADS environment is not set. Defaulting to 1 thread. (src/comm.cpp:98)
  using 1 OpenMP thread(s) per MPI task
#============Initialization=================
units 			metal
atom_style 		atomic
boundary 		p p p

############################################
#              CLI Variables               #
############################################
variable 		seed index 200093          #
variable 		N index 6                  #
variable 		iter index 1000000         #
variable 		iterther index 100000      #
variable 		iexport index 1000         #
variable 		tempchauf index 3000       #
variable 		Tdamp index 0.001          #
variable 		timestep index 0.0001      #
variable 		box_size index 100		   #
############################################
############################################

#=========Simulation box definition=========
lattice 		sc 1.0
Lattice spacing in x,y,z = 1.0000000 1.0000000 1.0000000
region 			bigbox block 0 ${box_size} 0 ${box_size} 0 ${box_size}
region 			bigbox block 0 100 0 ${box_size} 0 ${box_size}
region 			bigbox block 0 100 0 100 0 ${box_size}
region 			bigbox block 0 100 0 100 0 100
create_box 		1 bigbox
Created orthogonal box = (0.0000000 0.0000000 0.0000000) to (100.00000 100.00000 100.00000)
  1 by 1 by 1 MPI processor grid

#==================Atoms====================
region 			safezone block 6 9 6 9 6 9 units box
create_atoms 	1 random ${N} ${seed} safezone
create_atoms 	1 random 6 ${seed} safezone
create_atoms 	1 random 6 200093 safezone
Created 6 atoms
  using lattice units in orthogonal box = (0.0000000 0.0000000 0.0000000) to (100.00000 100.00000 100.00000)
<<<<<<< HEAD
  create_atoms CPU = 0.000 seconds
=======
  create_atoms CPU = 0.001 seconds
>>>>>>> 87615210ff3531047c4c2112d5ba92b34142a006
mass 			* 12.01



#==========Velocity initialization==========
velocity 		all create 0.0000001 1563967 rot yes dist gaussian

#======Pair style for atom interactions=============
pair_style 		airebo 1.8
pair_coeff 		* * CH.airebo C
Reading airebo potential file CH.airebo with DATE: 2011-10-25

#==============Neighbor selection===================
neighbor 		2.0 bin
neigh_modify 	every 1 delay 0 check yes


#=====================Timestep======================
timestep 		${timestep}
timestep 		0.0001

#===============Define dump command=================
dump 			1 all cfg 100000 ./dump/dump.tensile_*.cfg mass type xs ys zs vx vy vz id

#========System temperature printing info===========
thermo_style 	custom step temp etotal epair pe ke
thermo 			${iexport}
thermo 			1000



#====================CRC Cycle======================

#=============Condensation et chauffe===============
fix 			1 all nve
fix 			2 all temp/berendsen 0.0 ${tempchauf} ${Tdamp}
fix 			2 all temp/berendsen 0.0 3000 ${Tdamp}
fix 			2 all temp/berendsen 0.0 3000 0.001
fix             3 all momentum 1 linear 1 1 1 angular rescale

run 			${iter}
run 			1000000
Neighbor list info ...
  update every 1 steps, delay 0 steps, check yes
  max neighbors/atom: 2000, page size: 100000
  master list distance cutoff = 9.816371
  ghost atom cutoff = 9.816371
  binsize = 4.9081855, bins = 21 21 21
  1 neighbor lists, perpetual/occasional/extra = 1 0 0
  (1) pair airebo, perpetual
      attributes: full, newton on, ghost
      pair build: full/bin/ghost
      stencil: full/ghost/bin/3d
      bin: standard
Per MPI rank memory allocation (min/avg/max) = 5.193 | 5.193 | 5.193 Mbytes
Step Temp TotEng E_pair PotEng KinEng 
       0        1e-07     24.80326     24.80326     24.80326 6.4630073e-11 
    1000    14.410476   -25.510849   -25.520162   -25.520162 0.0093135008 
    2000    18.221006   -26.112134   -26.123911   -26.123911  0.011776249 
    3000    20.617246   -27.384436   -27.397761   -27.397761  0.013324941 
    4000     19.84096   -28.054624   -28.067447   -28.067447  0.012823227 
    5000    21.352563   -28.563352   -28.577152   -28.577152  0.013800177 
    6000    24.290986   -28.987172   -29.002871   -29.002871  0.015699282 
    7000    25.693665   -29.405704    -29.42231    -29.42231  0.016605834 
    8000    23.093334    -29.58431   -29.599236   -29.599236  0.014925239 
    9000    23.850158   -29.532359   -29.547774   -29.547774  0.015414375 
   10000    34.756257   -29.556007    -29.57847    -29.57847  0.022462994 
   11000    32.991249   -29.566671   -29.587993   -29.587993  0.021322268 
   12000    35.796774   -29.563151   -29.586286   -29.586286  0.023135481 
   13000    37.039691   -29.551844   -29.575783   -29.575783  0.023938779 
<<<<<<< HEAD
   14000    38.987936   -29.546641   -29.571839   -29.571839  0.025197931 
   15000    44.921071   -29.549599   -29.578632   -29.578632  0.029032521 
   16000    43.725693   -29.522493   -29.550753   -29.550753  0.028259947 
   17000    53.845298   -29.524387   -29.559187   -29.559187  0.034800255 
   18000    57.270953   -29.483205   -29.520219   -29.520219  0.037014259 
   19000    51.970743   -29.507329   -29.540917   -29.540917  0.033588729 
   20000     54.84111    -29.54789   -29.583334   -29.583334  0.035443849 
   21000    70.666941    -29.47746   -29.523132   -29.523132  0.045672095 
   22000    58.363276   -29.535711   -29.573431   -29.573431  0.037720227 
   23000    76.142391    -29.50182   -29.551031   -29.551031  0.049210883 
   24000    75.108442   -29.517568   -29.566111   -29.566111  0.048542641 
   25000    80.635127   -29.480171   -29.532285   -29.532285  0.052114541 
   26000    70.664574    -29.49643   -29.542101   -29.542101  0.045670566 
   27000    77.489217   -29.523124   -29.573205   -29.573205  0.050081337 
   28000    81.862951   -29.480519   -29.533427   -29.533427  0.052908084 
   29000    83.319104   -29.501514   -29.555363   -29.555363  0.053849198 
   30000    98.717633   -29.485572   -29.549374   -29.549374  0.063801278 
   31000    95.652421   -29.465961   -29.527781   -29.527781  0.061820229 
   32000    91.351703   -29.467069   -29.526109   -29.526109  0.059040672 
   33000    94.049258   -29.493342   -29.554126   -29.554126  0.060784103 
   34000    108.94638   -29.493594   -29.564006   -29.564006  0.070412122 
   35000     95.06456   -29.413096   -29.474536   -29.474536  0.061440294 
   36000    102.89129   -29.469492    -29.53599    -29.53599  0.066498717 
   37000    105.55799   -29.439576   -29.507798   -29.507798  0.068222205 
   38000    125.93448   -29.427672   -29.509063   -29.509063  0.081391544 
   39000    117.47681   -29.405051   -29.480976   -29.480976   0.07592535 
   40000    136.01846   -29.433565   -29.521474   -29.521474  0.087908828 
   41000    114.56065   -29.427268   -29.501308   -29.501308  0.074040633 
   42000    122.76474   -29.432389   -29.511732   -29.511732  0.079342941 
   43000    135.54908   -29.424541   -29.512146   -29.512146  0.087605471 
   44000    131.56579   -29.384746   -29.469777   -29.469777  0.085031065 
   45000    132.19805   -29.393142   -29.478582   -29.478582  0.085439697 
   46000    142.32869   -29.458973    -29.55096    -29.55096  0.091987136 
   47000    134.29887   -29.377106   -29.463904   -29.463904  0.086797454 
   48000    147.52356   -29.430419   -29.525763   -29.525763  0.095344585 
   49000    149.88066    -29.42364   -29.520508   -29.520508  0.096867979 
   50000    149.96123   -29.385015   -29.481935   -29.481935  0.096920048 
   51000    132.15012   -29.395391     -29.4808     -29.4808  0.085408716 
   52000     153.3751    -29.37422   -29.473347   -29.473347  0.099126437 
   53000    161.47591   -29.164563   -29.268925   -29.268925     0.104362 
   54000    157.33914   -29.279548   -29.381236   -29.381236    0.1016884 
   55000    194.08004   -29.335764   -29.461198   -29.461198   0.12543407 
   56000    182.18405   -29.335792   -29.453538   -29.453538   0.11774568 
   57000    181.23594   -29.298496   -29.415629   -29.415629   0.11713292 
   58000    183.32787   -29.225423   -29.343908   -29.343908   0.11848493 
   59000    171.58835   -29.409054   -29.519951   -29.519951   0.11089767 
   60000    177.59641   -29.407384   -29.522164   -29.522164   0.11478069 
   61000    175.93007   -29.373851   -29.487555   -29.487555   0.11370373 
   62000    212.78928   -29.310555   -29.448081   -29.448081   0.13752586 
   63000    186.32575    -29.38539   -29.505813   -29.505813   0.12042247 
   64000    180.45205    -29.41928   -29.535906   -29.535906   0.11662629 
   65000    198.82809   -29.324986   -29.453489   -29.453489   0.12850274 
   66000    189.11078   -29.291754   -29.413976   -29.413976   0.12222243 
   67000    203.45504   -29.344849   -29.476343   -29.476343   0.13149314 
   68000    195.42749   -29.379553   -29.505858   -29.505858   0.12630493 
   69000    194.96096    -29.36572   -29.491723   -29.491723   0.12600341 
   70000    207.51203   -29.359579   -29.493694   -29.493694   0.13411518 
   71000    205.13757   -29.322493   -29.455074   -29.455074   0.13258056 
   72000    216.59229   -29.351771   -29.491755   -29.491755   0.13998375 
   73000    224.11639   -29.364659   -29.509505   -29.509505   0.14484659 
   74000    222.67903    -29.30396   -29.447878   -29.447878   0.14391762 
   75000    225.59114   -29.273306   -29.419106   -29.419106   0.14579972 
   76000     223.9082   -29.343989   -29.488701   -29.488701   0.14471203 
   77000    237.71615   -29.345005   -29.498641   -29.498641   0.15363612 
   78000    242.64929   -29.370054   -29.526878   -29.526878   0.15682441 
   79000    231.42778   -29.304918    -29.45449    -29.45449   0.14957194 
   80000    216.97351     -29.2136    -29.35383    -29.35383   0.14023014 
   81000    240.31887    -29.25176   -29.407078   -29.407078   0.15531826 
   82000     225.6935   -29.254158   -29.400023   -29.400023   0.14586587 
   83000    259.07656    -29.25158   -29.419022   -29.419022   0.16744137 
   84000    255.09914   -29.273888   -29.438759   -29.438759   0.16487076 
   85000    265.33801   -29.032057   -29.203546   -29.203546   0.17148815 
   86000    256.56112   -29.219879   -29.385695   -29.385695   0.16581564 
   87000    255.61277   -29.233567    -29.39877    -29.39877   0.16520272 
   88000    280.11597   -29.009143   -29.190182   -29.190182   0.18103915 
   89000    246.40955    -29.26623   -29.425485   -29.425485   0.15925467 
   90000    256.82902   -29.315268   -29.481256   -29.481256   0.16598878 
   91000    262.36386   -29.147556   -29.317122   -29.317122   0.16956595 
   92000       271.36   -29.178897   -29.354277   -29.354277   0.17538016 
   93000    306.56076   -29.057293   -29.255423   -29.255423   0.19813044 
   94000     290.1784   -29.166416   -29.353959   -29.353959   0.18754251 
   95000    268.18087   -29.204687   -29.378013   -29.378013   0.17332549 
   96000    263.66252   -29.274533   -29.444938   -29.444938   0.17040528 
   97000    314.14339   -29.184179    -29.38721    -29.38721    0.2030311 
   98000    306.18567   -29.257429   -29.455317   -29.455317   0.19788802 
   99000    313.93268   -28.984651   -29.187545   -29.187545   0.20289492 
  100000     335.4159    -29.00973   -29.226509   -29.226509   0.21677954 
  101000    300.00909   -29.192031   -29.385927   -29.385927   0.19389609 
  102000    283.77498   -29.216193   -29.399597   -29.399597   0.18340398 
  103000    310.91633   -29.118271   -29.319216   -29.319216   0.20094545 
  104000    297.49361   -29.107248   -29.299519   -29.299519   0.19227033 
  105000    355.73446   -29.111834   -29.341745   -29.341745   0.22991144 
  106000     373.7975   -28.910049   -29.151635   -29.151635    0.2415856 
  107000    330.87727   -29.030966   -29.244812   -29.244812   0.21384622 
  108000    344.81856   -29.117924   -29.340781   -29.340781   0.22285648 
  109000     294.5167   -29.089847   -29.280193   -29.280193   0.19034635 
  110000    300.64227   -28.957199   -29.151505   -29.151505   0.19430532 
  111000     330.2139   -29.180786   -29.394203   -29.394203   0.21341748 
  112000    311.49509   -28.985673   -29.186993   -29.186993    0.2013195 
  113000     316.0888   -29.088359   -29.292648   -29.292648   0.20428842 
  114000    341.25555   -29.154522   -29.375075   -29.375075   0.22055371 
  115000    333.46224   -29.114339   -29.329856   -29.329856   0.21551689 
  116000    358.82951   -29.261249   -29.493161   -29.493161   0.23191177 
  117000     341.8255   -28.956752   -29.177674   -29.177674   0.22092207 
  118000    366.19233   -29.100669    -29.33734    -29.33734   0.23667037 
  119000    338.81934   -29.195143   -29.414123   -29.414123   0.21897918 
  120000    360.16089   -28.889279   -29.122051   -29.122051   0.23277224 
  121000    340.38751   -28.863705   -29.083698   -29.083698   0.21999269 
  122000    376.32359   -28.854183   -29.097401   -29.097401   0.24321821 
  123000    342.63269   -29.020934   -29.242378   -29.242378   0.22144376 
  124000    350.15596   -29.162806   -29.389112   -29.389112   0.22630605 
  125000    400.49209   -29.143184   -29.402022   -29.402022   0.25883833 
  126000    339.18544   -29.099573   -29.318789   -29.318789    0.2192158 
  127000    399.06462   -29.163228   -29.421144   -29.421144   0.25791575 
  128000    379.93001   -29.248545   -29.494094   -29.494094   0.24554904 
  129000    383.43897   -29.224966   -29.472782   -29.472782   0.24781688 
  130000    363.22583   -29.088987    -29.32374    -29.32374   0.23475312 
  131000    373.04002   -29.187743   -29.428839   -29.428839   0.24109604 
  132000    426.89162   -29.012296   -29.288197   -29.288197   0.27590036 
  133000    374.60632   -29.082294   -29.324402   -29.324402   0.24210834 
  134000    408.22417     -29.1534   -29.417235   -29.417235   0.26383557 
  135000    438.86803   -29.228004   -29.511645   -29.511645   0.28364073 
  136000    413.92749   -29.030593   -29.298115   -29.298115   0.26752164 
  137000      384.483   -29.096675   -29.345167   -29.345167   0.24849164 
  138000    430.18399   -29.009936   -29.287964   -29.287964   0.27802823 
  139000    409.88301   -28.839122    -29.10403    -29.10403   0.26490769 
  140000     375.5968   -28.312621    -28.55537    -28.55537   0.24274848 
  141000    403.07804   -28.954327   -29.214837   -29.214837   0.26050963 
  142000    431.67795   -29.168172   -29.447165   -29.447165   0.27899377 
  143000    408.38051   -28.926932   -29.190869   -29.190869   0.26393662 
  144000    382.03337   -28.642578   -28.889486   -28.889486   0.24690844 
  145000    423.13547   -28.868585   -29.142058   -29.142058   0.27347276 
  146000      451.769   -28.848389   -29.140368   -29.140368   0.29197863 
  147000    445.70818    -29.00793   -29.295991   -29.295991   0.28806152 
  148000    428.53828    -29.19589   -29.472854   -29.472854    0.2769646 
  149000    468.37079   -29.099462    -29.40217    -29.40217   0.30270838 
  150000    480.31606   -28.665829   -28.976258   -28.976258   0.31042861 
  151000    415.03016   -28.963679   -29.231913   -29.231913   0.26823429 
  152000    468.40059   -28.997477   -29.300205   -29.300205   0.30272764 
  153000    416.59481   -29.095761   -29.365007   -29.365007   0.26924553 
  154000    422.27911   -28.921776   -29.194695   -29.194695    0.2729193 
  155000    453.45847   -29.140874   -29.433944   -29.433944   0.29307054 
  156000    457.97616   -28.916679    -29.21267    -29.21267   0.29599032 
  157000    482.06957   -28.859938     -29.1715     -29.1715   0.31156191 
  158000    446.63473   -28.961154   -29.249814   -29.249814   0.28866035 
  159000    470.80859   -28.970621   -29.274905   -29.274905   0.30428393 
  160000    546.10543   -28.747221   -29.100169   -29.100169   0.35294834 
  161000    470.12976   -28.408358   -28.712203   -28.712203    0.3038452 
  162000    482.33377   -29.118025   -29.429757   -29.429757   0.31173267 
  163000    563.73936   -28.481712   -28.846057   -28.846057   0.36434516 
  164000    438.72616    -28.61741   -28.900959   -28.900959   0.28354904 
  165000    447.03514   -28.910143   -29.199062   -29.199062   0.28891914 
  166000    517.97288   -28.897457   -29.232224   -29.232224   0.33476625 
  167000    488.63124   -28.857776   -29.173579   -29.173579   0.31580273 
  168000     561.2469   -29.048744   -29.411478   -29.411478   0.36273428 
  169000    497.62321   -29.137515   -29.459129   -29.459129   0.32161424 
  170000    568.05545    -28.83935   -29.206484   -29.206484   0.36713465 
  171000    562.83127   -28.841853   -29.205611   -29.205611   0.36375826 
  172000    487.24651   -28.948263   -29.263171   -29.263171   0.31490777 
  173000    525.01712   -28.859792   -29.199111   -29.199111   0.33931895 
  174000    580.26392   -28.677036   -29.052061   -29.052061   0.37502499 
  175000    460.69864   -28.401352   -28.699102   -28.699102   0.29774987 
  176000    504.11748   -28.845113   -29.170924   -29.170924   0.32581149 
  177000    541.44707   -29.101075   -29.451013   -29.451013   0.34993763 
  178000    587.76123   -28.695968   -29.075839   -29.075839   0.37987051 
  179000    580.18597   -28.659519   -29.034494   -29.034494   0.37497462 
  180000     518.3435   -28.415019   -28.750025   -28.750025   0.33500578 
  181000    484.14796   -28.902698   -29.215603   -29.215603   0.31290518 
  182000    488.09347    -28.66224   -28.977695   -28.977695   0.31545517 
  183000    545.57889   -28.712172    -29.06478    -29.06478   0.35260803 
  184000    540.52878   -28.795005   -29.144349   -29.144349   0.34934414 
  185000    530.52165   -28.862856   -29.205732   -29.205732   0.34287653 
  186000    626.82767   -28.819076   -29.224196   -29.224196   0.40511918 
  187000    568.09309    -28.94714   -29.314299   -29.314299   0.36715897 
  188000    602.84663   -28.560836   -28.950457   -28.950457   0.38962021 
  189000    558.77144   -28.595552   -28.956686   -28.956686   0.36113439 
  190000     511.9485   -28.681688    -29.01256    -29.01256   0.33087269 
  191000    577.32438   -29.038469   -29.411595   -29.411595   0.37312516 
  192000    602.71985   -29.005255   -29.394794   -29.394794   0.38953828 
  193000    680.32223   -28.532262   -28.971955   -28.971955   0.43969275 
  194000    596.66068    -28.71229   -29.097912   -29.097912   0.38562223 
  195000    522.01946   -28.828373   -29.165755   -29.165755   0.33738156 
  196000    564.11094   -28.586555   -28.951141   -28.951141   0.36458531 
  197000    547.45606   -28.699541   -29.053362   -29.053362   0.35382125 
  198000    631.47038   -28.794381   -29.202501   -29.202501   0.40811977 
  199000    605.92755    -28.94139   -29.333001   -29.333001   0.39161142 
  200000    656.92829    -28.74194   -29.166513   -29.166513   0.42457323 
  201000    636.16898    -28.52354   -28.934697   -28.934697   0.41115647 
  202000    601.33657   -28.716105    -29.10475    -29.10475   0.38864426 
  203000    585.62224   -29.002861   -29.381349   -29.381349   0.37848808 
  204000    595.80503   -28.649792   -29.034861   -29.034861   0.38506922 
  205000    544.97288   -28.597214    -28.94943    -28.94943   0.35221637 
  206000    617.81599   -29.122299   -29.521594   -29.521594   0.39929492 
  207000    617.52348   -28.000277   -28.399383   -28.399383   0.39910587 
  208000    643.15865   -28.459945   -28.875619   -28.875619    0.4156739 
  209000    642.94825   -29.062547   -29.478085   -29.478085   0.41553792 
  210000    677.04545    -28.39755   -28.835125   -28.835125   0.43757497 
  211000    601.07857   -28.550172   -28.938649   -28.938649   0.38847752 
  212000    680.27855   -28.785426   -29.225091   -29.225091   0.43966452 
  213000     590.9048     -27.8894   -28.271303   -28.271303    0.3819022 
  214000    639.88095   -28.994215   -29.407771   -29.407771   0.41355552 
  215000    675.63273   -28.571044   -29.007706   -29.007706   0.43666192 
  216000    641.68336   -28.509435   -28.924155   -28.924155   0.41472042 
  217000    623.75191   -28.708086   -29.111217   -29.111217   0.40313131 
  218000    670.25231    -28.43341   -28.866594   -28.866594   0.43318455 
  219000    664.19126   -28.188603    -28.61787    -28.61787   0.42926729 
  220000    644.44807   -28.902642   -29.319149   -29.319149   0.41650725 
  221000    671.81758   -28.682037   -29.116234   -29.116234   0.43419619 
  222000    627.12237   -28.234579   -28.639888   -28.639888   0.40530964 
  223000    645.92877   -28.390908   -28.808373   -28.808373   0.41746423 
  224000    675.83506   -28.645257   -29.082049   -29.082049   0.43679269 
  225000    552.43208   -28.524471   -28.881508   -28.881508   0.35703726 
  226000    688.48397   -28.863041   -29.308009   -29.308009   0.44496769 
  227000    634.40009   -28.644108   -29.054121   -29.054121   0.41001324 
  228000    671.91082   -28.910254   -29.344511   -29.344511   0.43425645 
  229000    748.42152   -28.519159   -29.002864   -29.002864   0.48370537 
  230000    702.93964   -28.556007   -29.010318   -29.010318    0.4543104 
  231000    662.74304   -28.631895   -29.060226   -29.060226   0.42833131 
  232000     611.1143   -28.406999   -28.801962   -28.801962   0.39496362 
  233000    658.41012   -28.511403   -28.936934   -28.936934   0.42553094 
  234000    763.34198   -28.512803   -29.006151   -29.006151   0.49334848 
  235000    804.31573   -28.467144   -28.986974   -28.986974   0.51982984 
  236000    645.71244   -28.650074   -29.067398   -29.067398   0.41732442 
  237000    704.16795    -28.69157   -29.146674   -29.146674   0.45510426 
  238000    699.81569    -28.67189   -29.124181   -29.124181   0.45229139 
  239000      678.586   -28.764084   -29.202655   -29.202655   0.43857062 
  240000    698.31862    -28.68978   -29.141104   -29.141104   0.45132383 
  241000    700.65756   -28.292515    -28.74535    -28.74535   0.45283549 
  242000    656.68552   -28.681387   -29.105804   -29.105804   0.42441633 
  243000    683.91582   -28.555865    -28.99788    -28.99788   0.44201529 
  244000    687.73727   -28.441164   -28.885649   -28.885649    0.4444851 
  245000    628.71739   -28.046862   -28.453202   -28.453202    0.4063405 
  246000    784.69297   -28.584643    -29.09179    -29.09179   0.50714763 
  247000    816.50106   -28.497366   -29.025071   -29.025071   0.52770523 
  248000    734.38694   -28.210335    -28.68497    -28.68497   0.47463481 
  249000    740.43495   -28.446589   -28.925133   -28.925133   0.47854365 
  250000    745.38608   -28.817778   -29.299521   -29.299521   0.48174357 
  251000    773.97867   -28.232222   -28.732445   -28.732445   0.50022298 
  252000    726.39948   -28.501088    -28.97056    -28.97056   0.46947251 
  253000    769.75682   -28.596537   -29.094031   -29.094031   0.49749439 
  254000    754.35237   -28.362158   -28.849697   -28.849697   0.48753848 
  255000    757.87818   -28.652465   -29.142283   -29.142283   0.48981722 
  256000    749.52642   -28.499141   -28.983561   -28.983561   0.48441947 
  257000    820.15233   -28.272609   -28.802675   -28.802675   0.53006505 
  258000    768.22549   -28.534176   -29.030681   -29.030681   0.49650469 
  259000     812.6154   -28.572675   -29.097869   -29.097869   0.52519392 
  260000    750.52803   -28.612742   -29.097808   -29.097808   0.48506681 
  261000    747.57028   -28.362115    -28.84527    -28.84527   0.48315521 
  262000    850.21727    -28.59167   -29.141166   -29.141166   0.54949604 
  263000    748.98508   -28.504624   -28.988694   -28.988694    0.4840696 
  264000    814.83378   -28.298875   -28.825503   -28.825503   0.52662767 
  265000    821.93524    -28.43729   -28.968507   -28.968507   0.53121734 
  266000    675.31607   -28.359941   -28.796398   -28.796398   0.43645726 
  267000     801.1821   -28.644584   -29.162388   -29.162388   0.51780457 
  268000    625.43047   -28.639727   -29.043943   -29.043943   0.40421617 
  269000    807.95131   -28.528168   -29.050348   -29.050348   0.52217951 
  270000    791.68663   -28.415808   -28.927476   -28.927476   0.51166764 
  271000    778.94806    -28.70158   -29.205014   -29.205014    0.5034347 
  272000    840.16677   -28.711515   -29.254515   -29.254515   0.54300039 
  273000     904.3565    -28.48571   -29.070196   -29.070196   0.58448626 
  274000    845.60282   -28.621967   -29.168481   -29.168481   0.54651372 
  275000     788.1817   -28.617884   -29.127286   -29.127286   0.50940241 
  276000    819.99247   -28.471338     -29.0013     -29.0013   0.52996173 
  277000    861.48452   -28.815632    -29.37241    -29.37241   0.55677807 
  278000    806.82321   -27.990027   -28.511478   -28.511478   0.52145043 
  279000    822.44246   -28.275289   -28.806834   -28.806834   0.53154516 
  280000    843.86365    -28.61335    -29.15874    -29.15874   0.54538969 
  281000    857.43055   -28.580379   -29.134537   -29.134537   0.55415799 
  282000    882.96848    -28.46005   -29.030713   -29.030713   0.57066317 
  283000    942.04262   -28.513372   -29.122215   -29.122215   0.60884283 
  284000    846.88994   -28.193624   -28.740969   -28.740969   0.54734558 
  285000    865.63119   -28.613972    -29.17343    -29.17343   0.55945806 
  286000    884.74466   -28.154645   -28.726456   -28.726456   0.57181112 
  287000    857.75182   -28.368482   -28.922848   -28.922848   0.55436562 
  288000    887.63199    -28.67131   -29.244987   -29.244987    0.5736772 
  289000      920.857   -28.489802   -29.084953   -29.084953   0.59515055 
  290000      909.887   -28.338999   -28.927059   -28.927059   0.58806063 
  291000    828.00129   -28.466418   -29.001555   -29.001555   0.53513783 
  292000     964.8476   -28.756537   -29.380119   -29.380119    0.6235817 
  293000    911.44953   -28.197629     -28.7867     -28.7867   0.58907049 
  294000    920.00503   -28.167196   -28.761796   -28.761796   0.59459992 
  295000    877.03365   -28.546251   -29.113079   -29.113079   0.56682748 
  296000    951.34204    -28.48087   -29.095723   -29.095723   0.61485305 
  297000    846.89633    -28.31044    -28.85779    -28.85779   0.54734971 
  298000    989.22174   -28.165756   -28.805091   -28.805091   0.63933473 
  299000     892.0611   -28.612179   -29.188719   -29.188719   0.57653974 
  300000     953.5179   -28.490026   -29.106285   -29.106285   0.61625931 
  301000    846.50977   -28.715059   -29.262159   -29.262159   0.54709988 
  302000    832.81039   -27.993095   -28.531341   -28.531341   0.53824596 
  303000    965.61326    -28.15885   -28.782927   -28.782927   0.62407655 
  304000    938.04778   -28.115418   -28.721679   -28.721679   0.60626096 
  305000    939.88696   -28.668726   -29.276175   -29.276175   0.60744963 
  306000    865.76787    -28.48527   -29.044816   -29.044816    0.5595464 
  307000    862.26017   -27.509153   -28.066432   -28.066432   0.55727938 
  308000    938.37676   -28.298145   -28.904619   -28.904619   0.60647358 
  309000    935.60613   -28.530474   -29.135157   -29.135157   0.60468292 
  310000    925.94821   -28.017688   -28.616129   -28.616129     0.598441 
  311000    980.11656   -28.604612   -29.238062   -29.238062   0.63345005 
  312000    900.60824   -28.115591   -28.697655   -28.697655   0.58206376 
  313000    901.78324   -28.100298   -28.683121   -28.683121   0.58282316 
  314000    889.61636   -28.672672   -29.247632   -29.247632    0.5749597 
  315000    916.26808   -28.118749   -28.710934   -28.710934   0.59218472 
  316000    931.36584   -27.608648    -28.21059    -28.21059   0.60194242 
  317000    971.81391   -28.756017   -29.384101   -29.384101   0.62808404 
  318000    852.60119   -27.343871   -27.894908   -27.894908   0.55103677 
  319000     963.5816   -28.660798   -29.283561   -29.283561   0.62276349 
  320000     1003.207   -27.897037    -28.54541    -28.54541   0.64837338 
  321000    963.14983   -28.190818   -28.813303   -28.813303   0.62248443 
  322000    1032.1946   -28.458556   -29.125665   -29.125665   0.66710814 
  323000    958.31091   -28.614503    -29.23386    -29.23386   0.61935703 
  324000    916.81001   -28.183595    -28.77613    -28.77613   0.59253497 
  325000    960.03019   -28.026634   -28.647102   -28.647102   0.62046821 
  326000    975.04908    -28.28337   -28.913545   -28.913545   0.63017493 
  327000    1006.1589   -27.894273   -28.544554   -28.544554   0.65028122 
  328000    1099.7572   -28.300287   -29.011061   -29.011061   0.71077389 
  329000    980.05497    -28.10768   -28.741091   -28.741091   0.63341024 
  330000    1003.2442   -28.491507   -29.139905   -29.139905   0.64839745 
  331000    936.33786   -28.448676   -29.053831   -29.053831   0.60515584 
  332000    994.61725    -28.03278   -28.675602   -28.675602   0.64282185 
  333000    996.55078   -28.417328   -29.061399   -29.061399   0.64407149 
  334000    1018.6632   -28.200612   -28.858975   -28.858975    0.6583628 
  335000    994.89663   -28.366527   -29.009529   -29.009529   0.64300241 
  336000    1005.6162   -28.442194   -29.092125   -29.092125   0.64993047 
  337000    991.55278   -28.280973   -28.921814   -28.921814   0.64084128 
  338000    1014.9823   -28.157723   -28.813706   -28.813706   0.65598377 
  339000     967.0211   -28.254811   -28.879798   -28.879798   0.62498644 
  340000    1142.2042   -28.102066   -28.840274   -28.840274   0.73820741 
  341000    1103.0674   -28.267932   -28.980845   -28.980845   0.71291323 
  342000     998.7661   -28.476271   -29.121774   -29.121774   0.64550325 
  343000    1071.2117   -28.412377   -29.104702   -29.104702    0.6923249 
  344000     1017.921   -28.358835   -29.016719   -29.016719   0.65788308 
  345000    1047.9922   -28.177256   -28.854574   -28.854574   0.67731815 
  346000    1060.9476   -28.338411   -29.024103   -29.024103   0.68569122 
  347000    1097.0471   -27.893422   -28.602444   -28.602444   0.70902232 
  348000    1012.2811   -28.080971   -28.735209   -28.735209   0.65423801 
  349000    1066.6197   -28.169611   -28.858968   -28.858968    0.6893571 
  350000    1010.9405   -28.134349   -28.787721   -28.787721    0.6533716 
  351000    1072.5007   -28.151639   -28.844797   -28.844797   0.69315795 
  352000    963.23771   -28.313977   -28.936518   -28.936518   0.62254123 
  353000    1120.5161   -28.209582   -28.933772   -28.933772   0.72419036 
  354000    1126.3577   -28.256575   -28.984541   -28.984541   0.72796577 
  355000    1092.1589   -28.084537     -28.7904     -28.7904   0.70586311 
  356000    1120.0555   -28.459068   -29.182961   -29.182961   0.72389271 
  357000    1141.0926   -28.016062   -28.753551   -28.753551   0.73748897 
  358000     1071.123   -28.248748   -28.941015   -28.941015   0.69226758 
  359000    1089.5981   -28.287233   -28.991441   -28.991441   0.70420802 
  360000    1033.3862   -27.699619   -28.367497   -28.367497   0.66787822 
  361000    1115.7818   -28.363133   -29.084263   -29.084263   0.72113056 
  362000    1074.8508   -28.329904   -29.024581   -29.024581   0.69467683 
  363000    1117.6353   -28.201941    -28.92427    -28.92427    0.7223285 
  364000    1097.3152   -28.381711   -29.090906   -29.090906   0.70919562 
  365000     1165.108   -27.870951   -28.623961   -28.623961   0.75301012 
  366000    1113.9878   -28.196382   -28.916353   -28.916353   0.71997113 
  367000    1104.6885   -28.143903   -28.857864   -28.857864   0.71396101 
  368000    1084.6755   -28.201306   -28.902333   -28.902333   0.70102654 
  369000    1107.7263   -28.168139   -28.884063   -28.884063   0.71592429 
  370000    1118.0843   -28.230705   -28.953324   -28.953324    0.7226187 
  371000    1066.2138   -27.995396   -28.684491   -28.684491   0.68909473 
  372000    1122.1301   -28.336756   -29.061989   -29.061989   0.72523348 
  373000    1089.6967   -28.000861   -28.705133   -28.705133   0.70427178 
  374000    1101.1021   -28.057006   -28.768649   -28.768649    0.7116431 
  375000    1102.9707   -28.270768   -28.983618   -28.983618   0.71285077 
  376000    1144.1931   -27.659535   -28.399028   -28.399028   0.73949283 
  377000    1142.5777   -28.313909   -29.052358   -29.052358   0.73844879 
  378000    1137.1069   -27.979663   -28.714576   -28.714576     0.734913 
  379000    1151.1381   -27.854108   -28.598089   -28.598089   0.74398138 
  380000     1200.993   -28.229824   -29.006027   -29.006027   0.77620265 
  381000    1187.5385   -28.027506   -28.795013   -28.795013   0.76750701 
  382000    1164.2273   -28.265772   -29.018213   -29.018213   0.75244094 
  383000    1155.9725   -27.638791   -28.385896   -28.385896   0.74710584 
  384000    1158.5724    -28.27199   -29.020776   -29.020776   0.74878619 
  385000    1125.1466   -28.314895   -29.042078   -29.042078   0.72718306 
  386000    1218.5043   -28.227377   -29.014897   -29.014897   0.78752024 
  387000     1253.024     -27.5582    -28.36803    -28.36803   0.80983032 
  388000     1073.332   -28.049563   -28.743258   -28.743258   0.69369525 
  389000    1291.0161   -27.712884   -28.547268   -28.547268   0.83438466 
  390000    1250.9028   -28.324051   -29.132511   -29.132511    0.8084594 
  391000     1270.259   -27.733262   -28.554231   -28.554231   0.82096934 
  392000    1106.2878   -28.019132   -28.734127   -28.734127   0.71499458 
  393000    1267.0747   -28.379917   -29.198829   -29.198829   0.81891127 
  394000    1111.6476   -27.619521   -28.337979   -28.337979   0.71845865 
  395000    1133.3922     -28.0546   -28.787112   -28.787112    0.7325122 
  396000    1261.1257   -28.282066   -29.097133   -29.097133   0.81506646 
  397000    1144.3297   -27.705749    -28.44533    -28.44533   0.73958111 
  398000    1162.3717   -28.239171   -28.990413   -28.990413   0.75124165 
  399000    1272.7915   -27.482039   -28.304646   -28.304646   0.82260608 
  400000    1167.5769   -27.781753   -28.536359   -28.536359   0.75460579 
  401000    1177.1193   -28.234104   -28.994878   -28.994878   0.76077306 
  402000    1277.4573   -27.418798    -28.24442    -28.24442   0.82562156 
  403000    1223.9685   -28.207865   -28.998916   -28.998916   0.79105171 
  404000     1157.251    -27.82717   -28.575102   -28.575102   0.74793216 
  405000     1121.048   -27.820809   -28.545343   -28.545343   0.72453416 
  406000     1149.346   -28.125877     -28.8687     -28.8687   0.74282315 
  407000    1172.0273   -27.709153   -28.466636   -28.466636    0.7574821 
  408000    1228.7543   -27.686576   -28.480721   -28.480721    0.7941448 
  409000    1239.8335    -27.98631   -28.787615   -28.787615   0.80130527 
  410000     1178.908   -28.187484   -28.949413   -28.949413   0.76192912 
  411000    1229.8773   -27.450531   -28.245402   -28.245402   0.79487062 
  412000    1325.1951   -28.192971   -29.049446   -29.049446   0.85647453 
  413000    1063.6425   -27.656081   -28.343514   -28.343514   0.68743292 
  414000    1145.2942   -27.856832   -28.597036   -28.597036   0.74020447 
  415000    1199.7738   -26.921726    -27.69714    -27.69714    0.7754147 
  416000    1266.4147   -27.463704   -28.282189   -28.282189   0.81848473 
  417000     1269.771    -28.11603   -28.936684   -28.936684   0.82065393 
  418000     1237.033   -27.421328   -28.220824   -28.220824   0.79949533 
  419000     1241.224   -28.046652   -28.848856   -28.848856   0.80220397 
  420000    1233.2172   -28.125617   -28.922646   -28.922646   0.79702917 
  421000     1292.012   -27.635998   -28.471026   -28.471026   0.83502832 
  422000    1269.3443   -28.104634   -28.925012   -28.925012   0.82037814 
  423000    1309.2489   -27.913954   -28.760123   -28.760123   0.84616852 
  424000    1292.8906   -27.923017   -28.758613   -28.758613   0.83559611 
  425000    1230.6675   -28.098758   -28.894139   -28.894139   0.79538132 
  426000    1304.6897   -27.568376   -28.411598   -28.411598    0.8432219 
  427000    1249.5857   -28.135854   -28.943463   -28.943463   0.80760816 
  428000    1258.6707   -27.656266   -28.469746   -28.469746   0.81347977 
  429000    1305.4035   -27.983996   -28.827679   -28.827679   0.84368324 
  430000    1269.1661   -27.811855   -28.632118   -28.632118   0.82026295 
  431000    1311.8142   -27.676137   -28.523963   -28.523963   0.84782648 
  432000    1301.1638   -28.157634   -28.998577   -28.998577   0.84094313 
  433000    1254.0892   -27.679055   -28.489574   -28.489574   0.81051877 
  434000    1339.8003   -28.000932   -28.866846   -28.866846   0.86591391 
  435000    1348.1644   -27.838162   -28.709481   -28.709481   0.87131966 
  436000    1324.1598   -28.132665    -28.98847    -28.98847   0.85580543 
  437000    1292.1157   -27.865326   -28.700422   -28.700422   0.83509533 
  438000    1295.4865   -28.000121   -28.837394   -28.837394   0.83727384 
  439000    1357.1818   -28.172953   -29.050101   -29.050101   0.87714761 
  440000    1308.4321   -27.744066   -28.589707   -28.589707   0.84564063 
  441000     1308.566    -28.08328   -28.929008   -28.929008   0.84572715 
  442000    1323.5964   -27.919243   -28.774684   -28.774684   0.85544134 
  443000    1318.1767   -27.746411   -28.598349   -28.598349   0.85193856 
  444000    1344.1294   -28.060805   -28.929517   -28.929517   0.86871181 
  445000    1377.1328   -27.900858     -28.7909     -28.7909   0.89004194 
  446000     1258.113   -27.664506   -28.477625   -28.477625   0.81311935 
  447000      1385.51   -27.509761   -28.405217   -28.405217   0.89545609 
  448000    1429.2935   -27.940703   -28.864457   -28.864457   0.92375345 
  449000    1373.3874   -27.808428   -28.696049   -28.696049    0.8876213 
  450000    1326.2879   -27.468215   -28.325395   -28.325395   0.85718082 
  451000    1521.6415   -27.799043   -28.782481   -28.782481   0.98343801 
  452000    1437.2029   -27.667598   -28.596463   -28.596463   0.92886527 
  453000    1367.1853   -28.035173   -28.918786   -28.918786   0.88361286 
  454000    1292.1494   -27.812538   -28.647655   -28.647655    0.8351171 
  455000    1365.0511   -27.936222   -28.818456   -28.818456   0.88223353 
  456000    1371.6605   -27.950057   -28.836563   -28.836563   0.88650516 
  457000    1340.6056   -27.719626    -28.58606    -28.58606   0.86643435 
  458000      1381.06   -27.792642   -28.685222   -28.685222   0.89258006 
  459000     1339.712   -27.692718   -28.558575   -28.558575   0.86585686 
  460000    1404.2933   -27.807394   -28.714989   -28.714989    0.9075958 
  461000    1412.4764   -28.186564   -29.099448   -29.099448   0.91288449 
  462000    1356.8995   -27.782781   -28.659746   -28.659746    0.8769651 
  463000    1380.4972   -28.029227   -28.921443   -28.921443   0.89221634 
  464000    1401.1311   -27.654808   -28.560361   -28.560361   0.90555204 
  465000    1333.6102   -27.929104   -28.791017   -28.791017   0.86191323 
  466000    1429.8279   -27.731863   -28.655962   -28.655962    0.9240988 
  467000    1420.8357   -27.592512   -28.510799   -28.510799   0.91828717 
  468000    1443.1905   -28.088661   -29.021396   -29.021396   0.93273509 
  469000    1445.6441   -27.644149    -28.57847    -28.57847   0.93432086 
  470000    1440.7962   -28.288308   -29.219496   -29.219496   0.93118762 
  471000    1412.8849   -27.275977   -28.189125   -28.189125   0.91314856 
  472000    1408.3028   -27.864589   -28.774776   -28.774776   0.91018715 
  473000    1408.8475   -27.922675   -28.833214   -28.833214   0.91053915 
  474000     1387.006   -27.671888   -28.568311   -28.568311   0.89642296 
  475000    1490.4054   -27.752263   -28.715513   -28.715513   0.96325007 
  476000    1473.7398   -27.811451    -28.76393    -28.76393   0.95247912 
  477000    1509.0593   -27.501237   -28.476544   -28.476544   0.97530613 
  478000    1423.0892   -27.774487    -28.69423    -28.69423   0.91974358 
  479000     1453.877   -27.866096   -28.805738   -28.805738   0.93964176 
  480000    1457.5506   -27.986332   -28.928348   -28.928348     0.942016 
  481000    1423.0681   -27.737429   -28.657158   -28.657158   0.91972993 
  482000    1438.8277   -27.795583   -28.725498   -28.725498   0.92991538 
  483000    1465.2733   -27.778143    -28.72515    -28.72515    0.9470072 
  484000    1435.1406   -27.831035   -28.758568   -28.758568   0.92753241 
  485000    1474.4726   -27.823122   -28.776075   -28.776075   0.95295274 
  486000     1434.026   -27.809685   -28.736497   -28.736497   0.92681203 
  487000    1457.5094    -27.72184   -28.663829   -28.663829   0.94198937 
  488000    1526.2786   -27.600203   -28.586638   -28.586638   0.98643494 
  489000    1468.0822   -27.710604   -28.659426   -28.659426   0.94882256 
  490000    1484.5292   -27.703469   -28.662921   -28.662921   0.95945233 
  491000    1406.8899   -27.427724   -28.336998   -28.336998   0.90927399 
  492000    1584.6258    -27.92367   -28.947815   -28.947815    1.0241448 
  493000    1464.2987   -27.814589   -28.760967   -28.760967   0.94637733 
  494000    1494.6288   -27.674918   -28.640898   -28.640898    0.9659797 
  495000    1472.6575   -27.714467   -28.666247   -28.666247   0.95177964 
  496000    1506.0017   -27.688323   -28.661653   -28.661653   0.97333001 
  497000    1531.4837   -27.710622   -28.700421   -28.700421   0.98979905 
  498000      1495.73   -27.891088   -28.857779   -28.857779   0.96669137 
  499000    1513.0606   -27.448733   -28.426625   -28.426625   0.97789215 
  500000    1488.1947   -27.316845   -28.278667   -28.278667   0.96182129 
  501000    1549.7293    -27.74667   -28.748261   -28.748261    1.0015912 
  502000    1463.6324   -27.650836   -28.596783   -28.596783   0.94594668 
  503000    1536.2252   -27.833068   -28.825931   -28.825931   0.99286346 
  504000     1498.159   -27.724529   -28.692791   -28.692791   0.96826125 
  505000    1560.3261   -27.858876   -28.867316   -28.867316    1.0084399 
  506000    1529.8086   -27.752243   -28.740959   -28.740959   0.98871641 
  507000    1499.7044   -27.705439   -28.674699   -28.674699   0.96926005 
  508000    1495.0751   -27.710527   -28.676795   -28.676795   0.96626809 
  509000    1468.4636    -27.67596   -28.625029   -28.625029    0.9490691 
  510000    1605.4668   -27.512582   -28.550196   -28.550196    1.0376143 
  511000    1499.4221   -27.522661   -28.491738   -28.491738   0.96907759 
  512000    1564.7616   -27.711269   -28.722576   -28.722576    1.0113066 
  513000    1548.0438   -27.688718   -28.689219   -28.689219    1.0005018 
  514000    1518.1613   -27.774572   -28.755761   -28.755761   0.98118876 
  515000    1575.9595   -27.927465   -28.946009   -28.946009    1.0185438 
  516000    1573.3614   -27.268888   -28.285753   -28.285753    1.0168646 
  517000     1521.992   -28.019806   -29.003471   -29.003471   0.98366451 
  518000    1551.6622   -27.523706   -28.526546   -28.526546    1.0028404 
  519000    1573.1675   -27.463766   -28.480506   -28.480506    1.0167393 
  520000    1635.4637   -27.549753   -28.606755   -28.606755    1.0570013 
  521000     1501.286   -27.753644   -28.723926   -28.723926   0.97028226 
  522000    1546.3232    -27.36076    -28.36015    -28.36015   0.99938979 
  523000    1562.5365   -27.528343   -28.538211   -28.538211    1.0098685 
  524000    1575.3657   -27.665378   -28.683538   -28.683538      1.01816 
  525000     1590.123    -27.65814   -28.685838   -28.685838    1.0276977 
  526000    1578.4154   -27.527959    -28.54809    -28.54809     1.020131 
  527000    1613.6699   -27.733963   -28.776879   -28.776879     1.042916 
  528000    1534.0195   -27.652956   -28.644394   -28.644394    0.9914379 
  529000     1583.448   -27.766401   -28.789785   -28.789785    1.0233836 
  530000    1586.2884   -27.830614   -28.855833   -28.855833    1.0252194 
  531000    1608.8745   -26.907484   -27.947301   -27.947301    1.0398167 
  532000     1643.625    -27.82722   -28.889496   -28.889496     1.062276 
  533000    1686.3216   -27.566925   -28.656796   -28.656796    1.0898709 
  534000    1497.7621   -27.382415    -28.35042    -28.35042   0.96800474 
  535000    1588.1279   -27.860941   -28.887349   -28.887349    1.0264082 
  536000    1677.4019   -27.154094     -28.2382     -28.2382    1.0841061 
  537000      1555.43   -27.488822   -28.494098   -28.494098    1.0052756 
  538000    1570.4681   -27.509769   -28.524763   -28.524763    1.0149947 
  539000    1559.5095   -27.148225   -28.156137   -28.156137    1.0079121 
  540000    1618.9372   -27.787052   -28.833373   -28.833373    1.0463203 
  541000     1644.897   -27.468319   -28.531417   -28.531417    1.0630981 
  542000    1709.2015   -27.423123   -28.527782   -28.527782    1.1046582 
  543000    1642.8975   -27.580625    -28.64243    -28.64243    1.0618058 
  544000    1707.5021   -27.129152   -28.232712   -28.232712    1.1035598 
  545000    1596.2165   -27.799629   -28.831265   -28.831265    1.0316359 
  546000     1690.683   -26.909612   -28.002302   -28.002302    1.0926896 
  547000    1723.6231   -27.646882   -28.760861   -28.760861    1.1139789 
  548000    1640.8582   -27.389812     -28.4503     -28.4503    1.0604879 
  549000    1635.6481   -27.560967   -28.618088   -28.618088    1.0571205 
  550000    1698.4328   -27.448067   -28.545766   -28.545766    1.0976984 
  551000    1711.3835   -27.295953   -28.402022   -28.402022    1.1060684 
  552000    1649.8979   -27.499636   -28.565966   -28.565966    1.0663302 
  553000    1635.1803   -27.251805   -28.308624   -28.308624    1.0568182 
  554000    1621.4267   -27.231198   -28.279128   -28.279128    1.0479292 
  555000    1763.9109    -27.63026   -28.770277   -28.770277    1.1400169 
  556000    1717.0803   -27.299479    -28.40923    -28.40923    1.1097503 
  557000    1661.2978   -27.605293   -28.678991   -28.678991     1.073698 
  558000    1648.6359   -27.592791   -28.658305   -28.658305    1.0655146 
  559000    1654.9938   -27.263421   -28.333044   -28.333044    1.0696237 
  560000    1702.2452   -27.774907   -28.875069   -28.875069    1.1001623 
  561000    1682.8185   -26.715323    -27.80293    -27.80293    1.0876068 
  562000    1669.9659   -27.791859   -28.871159   -28.871159    1.0793002 
  563000    1704.2902    -27.17752   -28.279004   -28.279004     1.101484 
  564000    1645.8111   -27.309511     -28.3732     -28.3732    1.0636889 
  565000    1726.9093   -28.023751   -29.139854   -29.139854    1.1161028 
  566000    1613.2617   -26.960095   -28.002747   -28.002747    1.0426522 
  567000    1709.1178   -27.889414   -28.994018   -28.994018    1.1046041 
  568000    1797.5277   -26.908968   -28.070712   -28.070712    1.1617434 
  569000    1730.1867   -27.639867   -28.758087   -28.758087    1.1182209 
  570000    1743.2786    -27.60011   -28.726792   -28.726792    1.1266822 
  571000    1645.0081   -27.349396   -28.412566   -28.412566    1.0631699 
  572000    1722.6426    -27.56163   -28.674975   -28.674975    1.1133452 
  573000    1698.2627   -26.906233   -28.003821   -28.003821    1.0975884 
  574000    1724.5838   -27.378965   -28.493565   -28.493565    1.1145998 
  575000    1710.6994   -27.753598   -28.859224   -28.859224    1.1056263 
  576000    1651.9201   -27.546405   -28.614042   -28.614042    1.0676371 
  577000    1722.3127   -27.452228    -28.56536    -28.56536    1.1131319 
  578000    1740.1409   -27.280323   -28.404977   -28.404977    1.1246543 
  579000    1741.9457   -27.616414   -28.742235   -28.742235    1.1258207 
  580000    1769.9525   -27.459854   -28.603775   -28.603775    1.1439216 
  581000     1654.699    -27.43162   -28.501053   -28.501053    1.0694332 
  582000     1846.841   -27.611576   -28.805191   -28.805191    1.1936147 
  583000    1713.8355   -27.395054   -28.502707   -28.502707    1.1076531 
  584000    1742.6817   -27.480436   -28.606733   -28.606733    1.1262965 
  585000    1722.4849   -27.373802   -28.487045   -28.487045    1.1132433 
  586000    1698.2557   -27.199391   -28.296975   -28.296975    1.0975839 
  587000    1637.9952   -27.525184   -28.583821   -28.583821    1.0586375 
  588000    1759.4693   -27.052569   -28.189715   -28.189715    1.1371463 
  589000    1705.2921   -27.553937   -28.656069   -28.656069    1.1021315 
  590000    1721.8304   -27.470054   -28.582874   -28.582874    1.1128202 
  591000    1802.5849   -27.251335   -28.416347   -28.416347     1.165012 
  592000    1775.8247   -27.603806   -28.751522   -28.751522    1.1477168 
  593000    1803.5014   -27.549834   -28.715438   -28.715438    1.1656043 
  594000    1784.1725   -27.536218    -28.68933    -28.68933     1.153112 
  595000    1793.2638   -27.153629   -28.312617   -28.312617    1.1589877 
  596000    1804.0499   -27.600357   -28.766316   -28.766316    1.1659588 
  597000    1816.9087     -27.4063   -28.580569   -28.580569    1.1742694 
  598000    1726.4838   -27.301684   -28.417512   -28.417512    1.1158277 
  599000    1843.5871   -27.427334   -28.618845   -28.618845    1.1915117 
  600000    1858.0571   -26.946738   -28.147601   -28.147601    1.2008637 
  601000    1770.1974   -27.231767   -28.375847   -28.375847    1.1440799 
  602000    1807.4562   -27.312067   -28.480227   -28.480227    1.1681603 
  603000    1771.5158    -26.78498   -27.929912   -27.929912     1.144932 
  604000    1757.9414   -27.247685   -28.383844   -28.383844    1.1361588 
  605000    1680.1185   -26.775955   -27.861816   -27.861816    1.0858618 
  606000     1883.505   -27.691988   -28.909299   -28.909299    1.2173107 
  607000    1750.8287   -26.715978    -27.84754    -27.84754    1.1315618 
  608000    1840.8659   -27.685338   -28.875091   -28.875091     1.189753 
  609000    1824.6514   -27.206044   -28.385318   -28.385318    1.1792735 
  610000     1846.444   -27.234953   -28.428311   -28.428311    1.1933581 
  611000    1785.4609   -27.661796    -28.81574    -28.81574    1.1539446 
  612000    1826.6167   -26.898569   -28.079112   -28.079112    1.1805437 
  613000    1836.7098   -27.568148   -28.755215   -28.755215    1.1870669 
  614000    1867.6315    -27.22491   -28.431962   -28.431962    1.2070516 
  615000     1818.872   -27.442152    -28.61769    -28.61769    1.1755383 
  616000    1783.8346   -27.318903   -28.471797   -28.471797    1.1528936 
  617000    1955.1593   -27.236325   -28.499946   -28.499946    1.2636209 
  618000    1822.7662   -27.282147   -28.460202   -28.460202    1.1780551 
  619000    1842.6767    -27.27162   -28.462544   -28.462544    1.1909233 
  620000     1843.565   -27.180244   -28.371741   -28.371741    1.1914974 
  621000    1915.3908   -27.158118   -28.396036   -28.396036    1.2379185 
  622000    1879.7927   -27.316751   -28.531663   -28.531663    1.2149114 
  623000    1831.5108   -27.058964   -28.242671   -28.242671    1.1837067 
  624000    1861.4755   -27.210951   -28.414024   -28.414024     1.203073 
  625000    1830.1389   -27.325438   -28.508258   -28.508258    1.1828201 
  626000    1840.4158   -27.449111   -28.638573   -28.638573    1.1894621 
  627000    1844.5142   -27.108322   -28.300433   -28.300433    1.1921108 
  628000    1921.3749   -27.208222   -28.450008   -28.450008     1.241786 
  629000    1896.3777   -27.495923   -28.721554   -28.721554    1.2256303 
  630000    1926.3441   -27.271031   -28.516029   -28.516029    1.2449976 
  631000    1709.4351   -27.161028   -28.265837   -28.265837    1.1048091 
  632000     1937.803   -27.298513   -28.550917   -28.550917    1.2524035 
  633000     1870.109   -27.263338   -28.471991   -28.471991    1.2086528 
  634000    1941.0648   -26.606427   -27.860938   -27.860938    1.2545116 
  635000    1831.4557   -27.295185   -28.478856   -28.478856    1.1836712 
  636000    1990.6353   -26.754437   -28.040986   -28.040986     1.286549 
  637000    1905.6663    -26.93541   -28.167043   -28.167043    1.2316335 
  638000    1975.0334   -27.748204   -29.024669   -29.024669    1.2764655 
  639000    1850.1862   -26.658804   -27.854581   -27.854581    1.1957767 
  640000    1966.4988   -27.391109   -28.662059   -28.662059    1.2709496 
  641000    1960.2127   -27.211416   -28.478303   -28.478303    1.2668869 
  642000    1839.7009   -27.137771   -28.326771   -28.326771        1.189 
  643000    2008.3307   -27.098806   -28.396792   -28.396792    1.2979856 
  644000    1916.8168   -27.345188   -28.584028   -28.584028    1.2388401 
  645000    1951.0325   -27.426786   -28.687739   -28.687739    1.2609537 
  646000    1953.6182   -27.146786   -28.409411   -28.409411    1.2626249 
  647000    1892.2369   -27.072606    -28.29556    -28.29556    1.2229541 
  648000    1950.5914   -27.464845   -28.725513   -28.725513    1.2606686 
  649000    1962.2475   -27.173801   -28.442003   -28.442003     1.268202 
  650000    1978.8296   -27.002556   -28.281475   -28.281475     1.278919 
  651000    1983.8675   -27.017304   -28.299479   -28.299479     1.282175 
  652000    1996.6715   -26.963718   -28.254168   -28.254168    1.2904502 
  653000    1910.1001   -27.203922   -28.438421   -28.438421    1.2344991 
  654000     1969.993   -26.820134   -28.093342   -28.093342    1.2732079 
  655000    1982.8493   -27.332241   -28.613758   -28.613758    1.2815169 
  656000    2043.2858   -27.278411   -28.598988   -28.598988    1.3205771 
  657000    1935.9297   -27.253327    -28.50452    -28.50452    1.2511928 
  658000    1903.3337   -27.357724    -28.58785    -28.58785    1.2301259 
  659000    1957.8164   -26.755177   -28.020515   -28.020515    1.2653382 
  660000    2002.3513    -27.05587   -28.349991   -28.349991    1.2941211 
  661000    1986.5769   -27.278568   -28.562494   -28.562494    1.2839261 
  662000    1990.5682   -26.880031   -28.166537   -28.166537    1.2865057 
  663000    2017.1529   -27.582042   -28.885729   -28.885729    1.3036874 
  664000    1921.7472   -27.038565   -28.280591   -28.280591    1.2420266 
  665000    2047.0016   -26.711197   -28.034176   -28.034176    1.3229786 
  666000    1955.4165   -27.209523    -28.47331    -28.47331    1.2637871 
  667000    2040.1382   -27.059013   -28.377556   -28.377556    1.3185428 
  668000    1959.6723   -27.406394   -28.672931   -28.672931    1.2665376 
  669000    2145.3776   -27.175001    -28.56156    -28.56156    1.3865591 
  670000    1985.3477   -27.118775   -28.401906   -28.401906    1.2831317 
  671000     2003.013   -27.220976   -28.515524   -28.515524    1.2945488 
  672000    1990.6189   -27.237651   -28.524189   -28.524189    1.2865385 
  673000    2049.0138   -26.903185   -28.227464   -28.227464    1.3242791 
  674000    2060.5731   -27.418184   -28.749934   -28.749934    1.3317499 
  675000    2055.4454   -26.660784    -27.98922    -27.98922    1.3284358 
  676000    2097.2921    -27.41046   -28.765941   -28.765941    1.3554814 
  677000    2011.7287   -27.182137   -28.482318   -28.482318    1.3001817 
  678000    2081.9664    -26.94438   -28.289957   -28.289957    1.3455764 
  679000    2030.8495   -26.942046   -28.254586   -28.254586    1.3125395 
  680000    1993.3396   -26.937486   -28.225783   -28.225783    1.2882968 
  681000    2051.5586   -27.257193   -28.583117   -28.583117    1.3259238 
  682000    2165.2157   -27.070744   -28.470125   -28.470125    1.3993805 
  683000    1996.0088   -26.858112   -28.148134   -28.148134    1.2900219 
  684000    1946.8572   -27.526759   -28.785014   -28.785014    1.2582552 
  685000    2005.7172   -26.945432   -28.241728   -28.241728    1.2962965 
  686000    2117.1655   -26.705735   -28.074061   -28.074061    1.3683256 
  687000    2045.8453   -27.226503   -28.548734   -28.548734    1.3222313 
  688000    2095.4824   -26.917204   -28.271516   -28.271516    1.3543118 
  689000    2215.4513   -27.453003   -28.884851   -28.884851    1.4318478 
  690000    2056.4716   -26.304821    -27.63392    -27.63392    1.3290991 
  691000    2164.6036    -27.46519   -28.864175   -28.864175    1.3989849 
  692000     2090.282   -26.813397   -28.164347   -28.164347    1.3509508 
  693000    2118.3031   -27.134783   -28.503844   -28.503844    1.3690608 
  694000    2088.1218   -26.930016   -28.279571   -28.279571    1.3495546 
  695000     1992.579   -27.062911   -28.350716   -28.350716    1.2878053 
  696000    2067.8379   -27.282762   -28.619207   -28.619207    1.3364452 
  697000    2145.5333   -26.606307   -27.992967   -27.992967    1.3866597 
  698000    2082.8035     -27.7096   -29.055717   -29.055717    1.3461174 
  699000    1986.4446   -26.584683   -27.868523   -27.868523    1.2838406 
  700000    2116.7286    -27.27101   -28.639053   -28.639053    1.3680432 
  701000    2134.4653   -26.822001   -28.201507   -28.201507    1.3795065 
  702000    2177.7744   -26.471872    -27.87937    -27.87937    1.4074972 
  703000    2034.1285   -27.557072    -28.87173    -28.87173    1.3146587 
  704000    2123.4215   -27.034573   -28.406941   -28.406941    1.3723689 
  705000    2129.6405   -27.233364   -28.609752   -28.609752    1.3763882 
  706000    2006.4012   -27.219775   -28.516513   -28.516513    1.2967385 
  707000    2052.6076   -26.786366   -28.112967   -28.112967    1.3266018 
  708000    2041.8327   -26.577525   -27.897163   -27.897163     1.319638 
  709000    2262.7786   -26.324546   -27.786981   -27.786981    1.4624354 
  710000    2123.0877   -26.791215   -28.163368   -28.163368    1.3721531 
  711000    2196.1783   -27.328559   -28.747951   -28.747951    1.4193916 
  712000       2074.9   -26.906829   -28.247838   -28.247838    1.3410094 
  713000    2177.7752   -27.128945   -28.536443   -28.536443    1.4074977 
  714000    2097.0692    -27.14382   -28.499157   -28.499157    1.3553374 
  715000    2002.5122   -26.666952   -27.961177   -27.961177    1.2942251 
  716000    2263.1425   -27.004979    -28.46765    -28.46765    1.4626706 
  717000    2122.0087    -26.81303   -28.184486   -28.184486    1.3714557 
  718000    2077.3123   -26.879397   -28.221965   -28.221965    1.3425684 
  719000    2202.8162    -26.83308   -28.256762   -28.256762    1.4236817 
  720000    2036.8447   -26.450819   -27.767234   -27.767234    1.3164142 
  721000    2174.7684   -27.239608   -28.645163   -28.645163    1.4055544 
  722000    2213.1796   -27.104665   -28.535044   -28.535044    1.4303796 
  723000     2068.962   -26.892467   -28.229638   -28.229638    1.3371717 
  724000    2284.7508    -27.09019   -28.566826   -28.566826    1.4766361 
  725000    2100.3335   -26.016231   -27.373679   -27.373679    1.3574471 
  726000    2270.2629   -26.432638   -27.899911   -27.899911    1.4672726 
  727000    2091.8309   -26.333384   -27.685336   -27.685336    1.3519518 
  728000    2277.3039   -27.156168   -28.627991   -28.627991    1.4718231 
  729000    2143.1753   -27.054142   -28.439277   -28.439277    1.3851357 
  730000    2198.3716   -26.494004   -27.914813   -27.914813    1.4208092 
  731000    2201.2551   -27.318964   -28.741637   -28.741637    1.4226727 
  732000    2256.6922    -27.01873   -28.477232   -28.477232    1.4585018 
  733000    2234.6076   -26.708455   -28.152683   -28.152683    1.4442285 
  734000    2245.0123   -27.002705   -28.453658   -28.453658    1.4509531 
  735000    2217.8385   -26.775615   -28.209006   -28.209006    1.4333907 
  736000    2202.2327   -26.844318   -28.267622   -28.267622    1.4233046 
  737000     2153.886   -27.377319   -28.769377   -28.769377    1.3920581 
  738000     2309.935   -26.621803   -28.114715   -28.114715    1.4929127 
  739000    2144.4278    -26.74868   -28.134625   -28.134625    1.3859452 
  740000    2230.4631   -25.539771   -26.981321   -26.981321    1.4415499 
  741000    2222.4493   -27.097961   -28.534332   -28.534332    1.4363706 
  742000    2233.9342   -27.249599   -28.693392   -28.693392    1.4437933 
  743000    2206.4337   -26.578091   -28.004111   -28.004111    1.4260197 
  744000    2212.3608   -27.261517   -28.691367   -28.691367    1.4298504 
  745000    2353.5688    -26.53509   -28.056203   -28.056203    1.5211132 
  746000    2148.8008   -26.864004   -28.252775   -28.252775    1.3887715 
  747000     2270.896   -26.934372   -28.402053   -28.402053    1.4676817 
  748000     2291.409   -26.826235   -28.307174   -28.307174    1.4809393 
  749000    2242.6756   -26.584041   -28.033483   -28.033483    1.4494429 
  750000    2238.5023   -26.823681   -28.270427   -28.270427    1.4467456 
  751000    2283.0136   -26.700332   -28.175846   -28.175846    1.4755133 
  752000     2239.628   -27.159591   -28.607064   -28.607064    1.4474732 
  753000    2296.0573    -26.82068   -28.304624   -28.304624    1.4839435 
  754000    2246.4356   -26.620722   -28.072595   -28.072595     1.451873 
  755000    2245.9253   -26.916307   -28.367851   -28.367851    1.4515431 
  756000    2230.7611   -26.282504   -27.724246   -27.724246    1.4417425 
  757000    2184.7182   -27.398233   -28.810218   -28.810218     1.411985 
  758000    2032.7503   -26.500387   -27.814155   -27.814155     1.313768 
  759000    2262.4428   -26.934388   -28.396607   -28.396607    1.4622184 
  760000    2323.6033   -26.916257   -28.418003   -28.418003    1.5017465 
  761000    2255.7932   -26.541445   -27.999366   -27.999366    1.4579208 
  762000    2280.1162   -26.942431   -28.416071   -28.416071    1.4736407 
  763000    2384.5837   -26.640529   -28.181687   -28.181687    1.5411582 
  764000    2105.7802   -26.834212    -28.19518    -28.19518    1.3609673 
  765000    2331.1756   -27.063909   -28.570549   -28.570549    1.5066405 
  766000    2146.5527   -25.703533   -27.090852   -27.090852    1.3873186 
  767000    2232.7376   -27.371551   -28.814571   -28.814571    1.4430199 
  768000    2338.2558   -25.670069   -27.181286   -27.181286    1.5112164 
  769000    2309.0516   -26.953234   -28.445576   -28.445576    1.4923417 
  770000    2386.8504   -26.821006   -28.363629   -28.363629    1.5426231 
  771000    2237.8431   -26.635097   -28.081416   -28.081416    1.4463196 
  772000    2296.2735   -27.016644   -28.500728   -28.500728    1.4840832 
  773000    2259.5827   -26.303483   -27.763853   -27.763853    1.4603699 
  774000    2269.7005   -27.503289   -28.970198   -28.970198    1.4669091 
  775000    2433.9996   -25.964182   -27.537278   -27.537278    1.5730957 
  776000    2291.7627   -27.223511   -28.704679   -28.704679    1.4811679 
  777000    2358.8256   -26.834218   -28.358728   -28.358728    1.5245107 
  778000    2408.6973   -26.436542   -27.993285   -27.993285    1.5567428 
  779000    2401.4582   -26.813778   -28.365842   -28.365842    1.5520642 
  780000    2325.6311   -26.352234   -27.855292   -27.855292     1.503057 
  781000     2368.297   -27.241525   -28.772157   -28.772157     1.530632 
  782000    2360.5662   -26.364827   -27.890463   -27.890463    1.5256356 
  783000    2258.1799   -26.558951   -28.018415   -28.018415    1.4594633 
  784000     2389.638   -26.907161   -28.451586   -28.451586    1.5444248 
  785000    2444.8248   -26.642495   -28.222587   -28.222587     1.580092 
  786000    2274.4121   -27.316286    -28.78624    -28.78624    1.4699542 
  787000    2491.5876   -25.714242   -27.324557   -27.324557    1.6103149 
  788000    2338.9516   -26.782819   -28.294485   -28.294485    1.5116661 
  789000    2472.9895   -26.480069   -28.078364   -28.078364    1.5982949 
  790000    2339.1912   -26.453542   -27.965363   -27.965363     1.511821 
  791000    2411.1835   -26.700154   -28.258503   -28.258503    1.5583497 
  792000    2441.7813    -26.22638   -27.804505   -27.804505     1.578125 
  793000    2456.4522   -26.790859   -28.378466   -28.378466    1.5876068 
  794000    2362.4225   -26.935061   -28.461897   -28.461897    1.5268354 
  795000    2408.1193   -26.936983   -28.493353   -28.493353    1.5563692 
  796000    2308.6966   -26.553219   -28.045332   -28.045332    1.4921123 
  797000     2403.455   -26.922436    -28.47579    -28.47579    1.5533547 
  798000    2399.1753   -26.841012   -28.391601   -28.391601    1.5505888 
  799000    2324.2412    -26.80289   -28.305049   -28.305049    1.5021588 
  800000    2636.3798   -26.355333   -28.059227   -28.059227    1.7038942 
  801000    2435.7558   -26.344369     -27.9186     -27.9186    1.5742307 
  802000    2449.4914   -26.468307   -28.051415   -28.051415    1.5831081 
  803000    2361.7328   -27.004166   -28.530556   -28.530556    1.5263896 
  804000    2366.4884    -26.49615   -28.025613   -28.025613    1.5294632 
  805000    2453.6003   -26.873857   -28.459621   -28.459621    1.5857636 
  806000    2478.5676   -26.617307   -28.219207   -28.219207    1.6019001 
  807000    2351.4911   -26.707291   -28.227062   -28.227062    1.5197704 
  808000    2385.5983   -26.971113   -28.512927   -28.512927    1.5418139 
  809000    2493.2108   -26.050841   -27.662205   -27.662205    1.6113639 
  810000    2380.7776   -26.682651   -28.221349   -28.221349    1.5386983 
  811000    2433.1697   -27.245375   -28.817934   -28.817934    1.5725593 
  812000     2460.002   -25.693307   -27.283208   -27.283208    1.5899011 
  813000    2444.2588   -27.390178   -28.969904   -28.969904    1.5797262 
  814000    2579.8834   -26.512058   -28.179438   -28.179438    1.6673805 
  815000    2449.5813   -26.108276   -27.691442   -27.691442    1.5831661 
  816000    2457.7138     -26.5091   -28.097522   -28.097522    1.5884222 
  817000     2574.169   -26.190795   -27.854482   -27.854482    1.6636873 
  818000    2574.4301   -26.211521   -27.875377   -27.875377     1.663856 
  819000    2359.9266   -26.956731   -28.481953   -28.481953    1.5252223 
  820000    2517.5023   -26.291618   -27.918681   -27.918681    1.6270635 
  821000    2546.1372   -26.543155   -28.188725   -28.188725    1.6455703 
  822000    2537.3063   -26.305308   -27.945171   -27.945171    1.6398629 
  823000    2531.3122   -26.786998   -28.422987   -28.422987    1.6359889 
  824000    2417.9706   -26.427447   -27.990183   -27.990183    1.5627361 
  825000    2313.8403   -26.711414   -28.206851   -28.206851    1.4954367 
  826000    2620.2361   -26.643716   -28.337177   -28.337177    1.6934605 
  827000    2500.8963   -26.709361   -28.325692   -28.325692    1.6163311 
  828000    2516.2462   -26.374176   -28.000428   -28.000428    1.6262518 
  829000    2512.0444   -26.887726   -28.511262   -28.511262    1.6235361 
  830000    2688.6596   -26.020648   -27.758331   -27.758331    1.7376826 
  831000    2341.6946   -26.600116   -28.113555   -28.113555    1.5134389 
  832000    2470.0018   -26.137471   -27.733835   -27.733835     1.596364 
  833000    2448.8498    -27.20505   -28.787744   -28.787744    1.5826934 
  834000    2684.4777   -26.540754   -28.275734   -28.275734    1.7349799 
  835000    2407.8092   -24.943643   -26.499812   -26.499812    1.5561689 
  836000    2703.6404   -26.894036   -28.641401   -28.641401    1.7473648 
  837000    2505.6468   -26.473304   -28.092706   -28.092706    1.6194013 
  838000    2654.6234   -26.387503   -28.103188   -28.103188    1.7156851 
  839000    2371.4315   -26.620352    -28.15301    -28.15301    1.5326579 
  840000    2356.7772   -26.903912   -28.427098   -28.427098    1.5231868 
  841000    2529.0783   -26.656997   -28.291542   -28.291542    1.6345452 
  842000    2653.4428   -26.509996   -28.224918   -28.224918     1.714922 
  843000    2491.4115   -26.515028   -28.125229   -28.125229    1.6102011 
  844000    2581.7649   -26.643113    -28.31171    -28.31171    1.6685965 
  845000    2573.9892   -26.579151   -28.242722   -28.242722    1.6635711 
  846000    2559.6883   -26.353907   -28.008236   -28.008236    1.6543284 
  847000    2528.6523   -25.947793   -27.582062   -27.582062    1.6342698 
  848000     2590.932   -26.804828    -28.47935    -28.47935    1.6745212 
  849000    2495.0313   -25.999481   -27.612021   -27.612021    1.6125406 
  850000    2579.0029   -26.513378    -28.18019    -28.18019    1.6668114 
  851000    2622.7668   -25.986431   -27.681527   -27.681527    1.6950961 
  852000    2569.6897   -26.130923   -27.791715   -27.791715    1.6607923 
  853000    2522.5534   -26.829204   -28.459532   -28.459532    1.6303281 
  854000    2471.7174   -25.146821   -26.744294   -26.744294    1.5974728 
  855000    2660.5184   -26.776303   -28.495798   -28.495798     1.719495 
  856000    2692.8876   -25.256772   -26.997188   -26.997188    1.7404152 
  857000    2500.3555   -26.989189    -28.60517    -28.60517    1.6159816 
  858000     2638.138   -26.278794   -27.983825   -27.983825    1.7050305 
  859000    2444.9766   -25.931282   -27.511472   -27.511472    1.5801901 
  860000    2448.7512   -26.561964   -28.144594   -28.144594    1.5826297 
  861000    2653.6311   -25.508227    -27.22327    -27.22327    1.7150437 
  862000    2759.0741   -27.029991   -28.813183   -28.813183    1.7831916 
  863000    2400.4558   -26.720988   -28.272404   -28.272404    1.5514163 
  864000    2888.5984   -25.636697     -27.5036     -27.5036    1.8669033 
  865000    2649.8478   -27.021964   -28.734563   -28.734563    1.7125986 
  866000    2563.4054   -26.154038   -27.810769   -27.810769    1.6567308 
  867000    2727.8013    -26.36824    -28.13122    -28.13122      1.76298 
  868000    2558.2115   -25.618277   -27.271651   -27.271651    1.6533739 
  869000    2833.6872   -25.931901   -27.763315   -27.763315    1.8314141 
  870000    2660.7881   -26.715602   -28.435271   -28.435271    1.7196693 
  871000     2620.589   -26.872082   -28.565771   -28.565771    1.6936885 
  872000    2852.7329   -25.680653   -27.524377   -27.524377    1.8437233 
  873000    2722.1499    -26.84523   -28.604558   -28.604558    1.7593274 
  874000    2780.8074   -26.553615   -28.350853   -28.350853    1.7972378 
  875000    2606.9704   -26.518944   -28.203831   -28.203831    1.6848869 
  876000    2602.9486   -26.864423    -28.54671    -28.54671    1.6822875 
  877000    2463.3812   -25.361529   -26.953614   -26.953614    1.5920851 
  878000    2553.7931   -26.689375   -28.339894   -28.339894    1.6505183 
  879000    2626.2699   -26.213547   -27.910907   -27.910907    1.6973602 
  880000    2530.6642   -26.135799   -27.771369   -27.771369    1.6355701 
  881000    2661.0019   -26.163528   -27.883335   -27.883335    1.7198074 
  882000    2653.3595   -26.343589   -28.058457   -28.058457    1.7148682 
  883000    2644.3672    -26.80403   -28.513086   -28.513086    1.7090564 
  884000     2581.212   -26.246757   -27.914996   -27.914996    1.6682392 
  885000    2601.0437   -26.015402   -27.696458   -27.696458    1.6810564 
  886000    2727.2388   -26.481074   -28.243691   -28.243691    1.7626164 
  887000    2901.9328   -26.216045   -28.091566   -28.091566    1.8755213 
  888000    2446.5214   -25.561783   -27.142971   -27.142971    1.5811886 
  889000    2653.1109   -27.231772   -28.946479   -28.946479    1.7147075 
  890000    2808.2995   -24.881677   -26.696683   -26.696683     1.815006 
  891000    2694.4673   -26.477842   -28.219278   -28.219278    1.7414362 
  892000    2989.0229   -25.749494   -27.681301   -27.681301    1.9318077 
  893000    2617.8594   -26.221356    -27.91328    -27.91328    1.6919244 
  894000     2650.796   -26.291205   -28.004416   -28.004416    1.7132114 
  895000    2583.7533   -26.258794   -27.928675   -27.928675    1.6698816 
  896000    2434.2715    -26.03908   -27.612351   -27.612351    1.5732714 
  897000    2774.3135   -26.898544   -28.691584   -28.691584    1.7930408 
  898000     2745.451    -26.06285   -27.837237   -27.837237     1.774387 
  899000    2730.7664   -26.450233   -28.215129   -28.215129    1.7648963 
  900000    2705.3217   -26.273882   -28.022334   -28.022334    1.7484514 
  901000    2564.3808   -26.168648   -27.826009   -27.826009    1.6573612 
  902000    2794.0331   -27.016393   -28.822179   -28.822179    1.8057856 
  903000      2565.41   -25.997786   -27.655813   -27.655813    1.6580263 
  904000    2762.9328   -26.396782   -28.182468   -28.182468    1.7856855 
  905000    2691.5204   -26.551767   -28.291299   -28.291299    1.7395316 
  906000    2810.2465   -25.841173   -27.657437   -27.657437    1.8162643 
  907000    2695.9676    -26.51477   -28.257175   -28.257175    1.7424058 
  908000    2713.1968   -25.266954   -27.020495   -27.020495    1.7535411 
  909000    2715.0671   -26.432618   -28.187368   -28.187368    1.7547498 
  910000    2756.8708     -26.2427   -28.024468   -28.024468    1.7817676 
  911000    2692.0324   -26.380166   -28.120029   -28.120029    1.7398625 
  912000    2735.7374   -26.716871    -28.48498    -28.48498    1.7681091 
  913000    2828.3146     -25.0073   -26.835242   -26.835242    1.8279418 
  914000      2898.02   -26.353224   -28.226217   -28.226217    1.8729924 
  915000    2829.0118   -25.643874   -27.472266   -27.472266    1.8283924 
  916000    2658.1954   -25.167925   -26.885918   -26.885918    1.7179936 
  917000    2711.2649   -25.496597    -27.24889    -27.24889    1.7522925 
  918000    2811.9439   -25.888013   -27.705375   -27.705375    1.8173614 
  919000      2587.05   -26.431577    -28.10359    -28.10359    1.6720123 
  920000     2816.606   -26.529645   -28.350019   -28.350019    1.8203745 
  921000    2581.5895   -25.592689   -27.261172   -27.261172    1.6684832 
  922000    2804.8219   -26.963112   -28.775871   -28.775871    1.8127584 
  923000    2775.6066   -25.939737   -27.733614   -27.733614    1.7938766 
  924000    2566.7154   -26.253014   -27.911884   -27.911884      1.65887 
  925000    2762.2572   -26.378691    -28.16394    -28.16394    1.7852488 
  926000    2726.9456    -24.90559   -26.668017   -26.668017    1.7624269 
  927000    2825.1846   -26.244708   -28.070627   -28.070627    1.8259188 
  928000    2832.7058   -26.093823   -27.924603   -27.924603    1.8307798 
  929000    2815.0087    -26.31815   -28.137492   -28.137492    1.8193422 
  930000    2748.3524   -26.359119   -28.135381   -28.135381    1.7762621 
  931000    2757.4054   -25.772203   -27.554317   -27.554317    1.7821131 
  932000    2725.1213   -26.188399   -27.949647   -27.949647    1.7612479 
  933000    2710.4403   -26.496727   -28.248486   -28.248486    1.7517596 
  934000    2713.8434    -26.25047   -28.004429   -28.004429    1.7539589 
  935000    2930.2656   -25.974978   -27.868811   -27.868811    1.8938328 
  936000    2917.1732   -26.601799    -28.48717    -28.48717    1.8853712 
  937000    2846.5406   -25.353396   -27.193117   -27.193117    1.8397213 
  938000    2721.9258   -26.623701   -28.382884   -28.382884    1.7591826 
  939000    2815.8449   -25.834757   -27.654639   -27.654639    1.8198826 
  940000    2884.9236   -25.316987   -27.181515   -27.181515    1.8645282 
  941000    2835.5825   -25.788064   -27.620703   -27.620703     1.832639 
  942000    2779.9027   -25.899382   -27.696035   -27.696035    1.7966531 
  943000    2915.6203   -26.523413   -28.407781   -28.407781    1.8843675 
  944000     2807.047   -25.439124    -27.25332    -27.25332    1.8141965 
  945000    2753.3773   -25.590801   -27.370311   -27.370311    1.7795097 
  946000    2727.0933   -25.609287   -27.371809   -27.371809    1.7625224 
  947000     2962.812   -25.162054   -27.076921   -27.076921    1.9148675 
  948000    2835.8262   -26.424043    -28.25684    -28.25684    1.8327965 
  949000    3073.9146   -25.004096   -26.990769   -26.990769    1.9866732 
  950000    2748.0417   -26.685699   -28.461761   -28.461761    1.7760613 
  951000    2895.9659    -25.85203   -27.723695   -27.723695    1.8716649 
  952000    2848.0495   -26.397247   -28.237944   -28.237944    1.8406965 
  953000    2743.5127   -26.605226   -28.378361   -28.378361    1.7731342 
  954000    2855.5707   -25.716705   -27.562262   -27.562262    1.8455574 
  955000    2774.7877   -26.763946   -28.557293   -28.557293    1.7933473 
  956000    2857.7602   -26.048013   -27.894986   -27.894986    1.8469725 
  957000      2816.47   -24.769703    -26.58999    -26.58999    1.8202866 
  958000     2917.935   -26.579326   -28.465189   -28.465189    1.8858635 
  959000    2725.9561   -24.898688   -26.660475   -26.660475    1.7617874 
  960000    3002.0371   -26.759087   -28.699306   -28.699306    1.9402187 
  961000    2866.1103   -25.995992   -27.848362   -27.848362    1.8523692 
  962000    2937.5488   -25.946034   -27.844574   -27.844574    1.8985399 
  963000    2856.9652   -25.018056   -26.864515   -26.864515    1.8464587 
  964000    2954.6494   -24.920906   -26.830498   -26.830498     1.909592 
  965000    2832.4333   -25.600416   -27.431019   -27.431019    1.8306037 
  966000    2797.6628    -26.06289   -27.871021   -27.871021    1.8081315 
  967000    2806.3856   -25.422354   -27.236123   -27.236123     1.813769 
  968000    2993.6049   -26.242578   -28.177347   -28.177347     1.934769 
  969000    3008.7349   -26.053121   -27.997669   -27.997669    1.9445475 
  970000    3184.0877   -25.633342    -27.69122    -27.69122    2.0578782 
  971000    2505.1772     -26.1102   -27.729298   -27.729298    1.6190978 
  972000    2919.4876   -26.117154   -28.004021   -28.004021    1.8868669 
  973000    2954.9443   -25.591711   -27.501493   -27.501493    1.9097826 
  974000    2836.3557   -25.989456   -27.822594   -27.822594    1.8331387 
  975000    2953.4377   -26.435188   -28.343997   -28.343997     1.908809 
  976000    3136.0485   -25.476635   -27.503465   -27.503465    2.0268304 
  977000    2641.6353   -26.438482   -28.145773   -28.145773    1.7072908 
  978000    2986.5719   -27.049924   -28.980148   -28.980148    1.9302236 
  979000    3242.5068   -26.013732   -28.109367   -28.109367    2.0956345 
  980000    2836.2021   -24.149352   -25.982391   -25.982391    1.8330395 
  981000    2886.8409   -26.447333     -28.3131     -28.3131    1.8657673 
  982000    2974.1264   -25.691791   -27.613971   -27.613971    1.9221801 
  983000    3114.5231   -23.662767   -25.675685   -25.675685    2.0129185 
  984000    2834.1118   -27.141415   -28.973104   -28.973104    1.8316885 
  985000    3128.3734   -24.422484   -26.444354   -26.444354      2.02187 
  986000    2856.7667   -25.529506   -27.375836   -27.375836    1.8463304 
  987000    2914.6876   -26.042017   -27.925782   -27.925782    1.8837647 
  988000    2980.9709   -23.882978   -25.809582   -25.809582    1.9266037 
  989000    3247.0254   -25.579339   -27.677894   -27.677894    2.0985548 
  990000    2986.8412   -26.215338   -28.145735   -28.145735    1.9303977 
  991000    3098.9635   -25.585448    -27.58831    -27.58831    2.0028624 
  992000    2781.5832   -26.398499   -28.196238   -28.196238    1.7977392 
  993000    2919.0384   -26.110256   -27.996832   -27.996832    1.8865766 
  994000    2905.4506    -25.61648   -27.494275   -27.494275    1.8777948 
  995000    3071.2553    -25.93301   -27.917964   -27.917964    1.9849546 
  996000     3172.509   -25.952381   -28.002776   -28.002776    2.0503949 
  997000    3185.5897   -25.538578   -27.597427   -27.597427    2.0588489 
  998000    2996.5093   -26.374686   -28.311332   -28.311332    1.9366462 
  999000    3199.7202   -25.288843   -27.356825   -27.356825    2.0679815 
 1000000    2934.5622   -25.775443   -27.672052   -27.672052    1.8966097 
Loop time of 9.71567 on 1 procs for 1000000 steps with 6 atoms

Performance: 889.285 ns/day, 0.027 hours/ns, 102926.515 timesteps/s
95.5% CPU use with 1 MPI tasks x 1 OpenMP threads
=======
   14000    38.987936   -29.546641   -29.571839   -29.571839  0.025197932 
[...]
 1866000    782.05997   -29.948709   -30.454155   -30.454155   0.50544593 
 1867000    641.04951    -29.87879   -30.293101   -30.293101   0.41431076 
 1868000     725.6279   -29.957204   -30.426178   -30.426178   0.46897384 
 1869000    652.89149   -29.941197   -30.363161   -30.363161   0.42196424 
 1870000    714.39083   -29.715142   -30.176853   -30.176853   0.46171131 
 1871000     649.8569   -29.853469   -30.273472   -30.273472   0.42000298 
 1872000    768.42457   -29.984268   -30.480901   -30.480901   0.49663335 
 1873000    630.80309   -29.831587   -30.239275   -30.239275   0.40768849 
 1874000    735.87374   -29.668029   -30.143625   -30.143625   0.47559573 
 1875000    629.40814   -29.899884   -30.306671   -30.306671   0.40678694 
 1876000    675.84283   -29.702795   -30.139593   -30.139593   0.43679771 
 1877000    709.56994   -30.048923   -30.507519   -30.507519   0.45859556 
 1878000    662.93332   -29.752181   -30.180636   -30.180636   0.42845429 
 1879000    663.22235   -29.880837   -30.309478   -30.309478   0.42864108 
 1880000    656.04374   -29.924308    -30.34831    -30.34831   0.42400154 
 1881000    658.21527   -29.701562   -30.126967   -30.126967   0.42540501 
 1882000    664.87514   -29.892011    -30.32172    -30.32172   0.42970928 
 1883000     604.7844   -29.921319   -30.312192   -30.312192   0.39087259 
 1884000    608.35939   -29.869937    -30.26312    -30.26312   0.39318311 
 1885000    681.70945   -29.891458   -30.332047   -30.332047   0.44058931 
 1886000    634.41887   -29.799073   -30.209099   -30.209099   0.41002537 
 1887000    629.65017   -30.042325   -30.449269   -30.449269   0.40694336 
 1888000    618.60073    -29.96426   -30.364063   -30.364063    0.3998021 
 1889000    649.99203   -29.869708   -30.289798   -30.289798   0.42009032 
 1890000    637.51192   -29.934437   -30.346462   -30.346462   0.41202442 
 1891000    612.17604    -29.91277    -30.30842    -30.30842   0.39564982 
 1892000    630.84478   -30.004092   -30.411808   -30.411808   0.40771544 
 1893000    614.72538   -29.974758   -30.372056   -30.372056   0.39729746 
 1894000    596.40552   -30.045568   -30.431025   -30.431025   0.38545732 
 1895000    666.98742   -29.991396    -30.42247    -30.42247   0.43107446 
 1896000    578.41942   -29.985623   -30.359456   -30.359456   0.37383289 
 1897000    605.85921   -30.046302   -30.437869   -30.437869   0.39156725 
 1898000    620.42101   -29.966736   -30.367715   -30.367715   0.40097855 
 1899000     620.8368   -30.034815   -30.436062   -30.436062   0.40124728 
 1900000    595.72216   -30.058039   -30.443055   -30.443055   0.38501566 
 1901000    614.39035   -30.009769    -30.40685    -30.40685   0.39708093 
 1902000    593.80328   -30.116669   -30.500445   -30.500445   0.38377549 
 1903000    605.01391   -30.015245   -30.406266   -30.406266   0.39102093 
 1904000    557.21471   -30.102994   -30.463122   -30.463122   0.36012827 
 1905000    580.45103   -30.034469   -30.409615   -30.409615   0.37514592 
 1906000    555.95501   -30.035385   -30.394699   -30.394699   0.35931412 
 1907000    593.79841   -29.990948    -30.37472    -30.37472   0.38377234 
 1908000    577.38763   -30.043875   -30.417041   -30.417041   0.37316604 
 1909000    576.76576   -30.061102   -30.433867   -30.433867   0.37276413 
 1910000    575.20328   -30.048105   -30.419859   -30.419859    0.3717543 
 1911000    562.51581   -30.088808   -30.452362   -30.452362   0.36355437 
 1912000    566.05108   -30.092621   -30.458461   -30.458461   0.36583923 
 1913000     560.6434   -30.079727   -30.442071   -30.442071   0.36234424 
 1914000    559.25547   -30.089311   -30.450758   -30.450758   0.36144722 
 1915000    565.24237    -30.12337   -30.488686   -30.488686   0.36531656 
 1916000    558.69925   -30.088222    -30.44931    -30.44931   0.36108773 
 1917000    543.43947   -30.118436   -30.469661   -30.469661   0.35122532 
 1918000     530.3813   -30.104943   -30.447729   -30.447729   0.34278582 
 1919000    545.02868   -30.090682   -30.442934   -30.442934   0.35225243 
 1920000    533.27308   -30.075318   -30.419972   -30.419972   0.34465478 
 1921000    546.00022   -30.113788   -30.466669   -30.466669   0.35288034 
 1922000    542.37056   -30.131242   -30.481776   -30.481776   0.35053449 
 1923000     537.4253   -30.104846   -30.452185   -30.452185   0.34733836 
 1924000    526.05922   -30.149681   -30.489673   -30.489673   0.33999246 
 1925000    529.74144   -30.154644   -30.497016   -30.497016   0.34237227 
 1926000    507.19569   -30.128977   -30.456778   -30.456778   0.32780094 
 1927000    516.74616   -30.138256   -30.472229   -30.472229   0.33397342 
 1928000    502.88731   -30.137501   -30.462518   -30.462518   0.32501643 
 1929000    520.66234   -30.111074   -30.447579   -30.447579   0.33650445 
 1930000    507.33897   -30.141662   -30.469555   -30.469555   0.32789354 
 1931000    519.19757   -30.156524   -30.492082   -30.492082   0.33555776 
 1932000    504.90387    -30.15162    -30.47794    -30.47794   0.32631973 
 1933000     506.3819   -30.147792   -30.475067   -30.475067   0.32727499 
 1934000    491.71665   -30.196243    -30.51404    -30.51404   0.31779683 
 1935000    504.85748   -30.156394   -30.482684   -30.482684   0.32628975 
 1936000    486.58591   -30.189543   -30.504024   -30.504024   0.31448083 
 1937000     479.4289   -30.172222   -30.482077   -30.482077   0.30985525 
 1938000     483.7588   -30.167218   -30.479871   -30.479871   0.31265366 
 1939000    483.92591   -30.156585   -30.469347   -30.469347   0.31276166 
 1940000    480.93125   -30.182238   -30.493064   -30.493064   0.31082621 
 1941000    484.67779   -30.165557   -30.478805   -30.478805   0.31324761 
 1942000    474.60748   -30.195162   -30.501901   -30.501901   0.30673916 
 1943000    472.47575   -30.203366   -30.508728   -30.508728   0.30536142 
 1944000    475.59329   -30.180856   -30.488232   -30.488232   0.30737629 
 1945000     468.6791   -30.202341   -30.505249   -30.505249   0.30290764 
 1946000    464.12035   -30.216364   -30.516325   -30.516325   0.29996132 
 1947000    463.60652   -30.174583   -30.474213   -30.474213   0.29962923 
 1948000    466.20545   -30.217077   -30.518386   -30.518386   0.30130892 
 1949000    463.71171   -30.186213    -30.48591    -30.48591   0.29969721 
 1950000    451.83069   -30.238617   -30.530635   -30.530635    0.2920185 
 1951000    458.14036   -30.214002   -30.510098   -30.510098   0.29609645 
 1952000    454.11618   -30.244191   -30.537687   -30.537687   0.29349562 
 1953000    443.45621   -30.232378   -30.518984   -30.518984   0.28660607 
 1954000    436.67741   -30.241317   -30.523542   -30.523542   0.28222493 
 1955000    432.20716     -30.2081   -30.487436   -30.487436    0.2793358 
 1956000    438.31134   -30.237131   -30.520412   -30.520412   0.28328094 
 1957000     432.1596    -30.23414   -30.513445   -30.513445   0.27930506 
 1958000    436.35916   -30.255185   -30.537204   -30.537204   0.28201924 
 1959000    423.14575   -30.262373   -30.535853   -30.535853   0.27347941 
 1960000    423.79243    -30.24551   -30.519407   -30.519407   0.27389735 
 1961000    419.20706   -30.278025   -30.548959   -30.548959   0.27093383 
 1962000    414.72227   -30.230125    -30.49816    -30.49816    0.2680353 
 1963000    412.26466   -30.277408   -30.543855   -30.543855   0.26644695 
 1964000    412.53043   -30.234617   -30.501236   -30.501236   0.26661872 
 1965000    412.62187   -30.275319   -30.541996   -30.541996   0.26667781 
 1966000    406.35299   -30.249517   -30.512143   -30.512143   0.26262623 
 1967000    401.25262   -30.284615   -30.543945   -30.543945   0.25932986 
 1968000    395.30984   -30.262569   -30.518058   -30.518058   0.25548903 
 1969000    393.52171   -30.273493   -30.527827   -30.527827   0.25433336 
 1970000    384.93756   -30.278206   -30.526992   -30.526992   0.24878543 
 1971000    387.54708   -30.275614   -30.526086   -30.526086   0.25047196 
 1972000    377.08702   -30.290584   -30.534296   -30.534296   0.24371162 
 1973000    377.55233   -30.290779   -30.534791   -30.534791   0.24401235 
 1974000     376.7219   -30.303031   -30.546507   -30.546507   0.24347563 
 1975000     377.7255   -30.308099   -30.552224   -30.552224   0.24412427 
 1976000    373.96146   -30.318099    -30.55979    -30.55979   0.24169156 
 1977000    368.20079   -30.318333   -30.556302   -30.556302   0.23796844 
 1978000    365.83553    -30.30246   -30.538899   -30.538899   0.23643977 
 1979000    367.44937   -30.314117     -30.5516     -30.5516   0.23748279 
 1980000    363.42624   -30.310017     -30.5449     -30.5449   0.23488265 
 1981000    357.91028   -30.321122   -30.552439   -30.552439   0.23131767 
 1982000    351.48344   -30.319448   -30.546612   -30.546612     0.227164 
 1983000    350.17333   -30.331976   -30.558293   -30.558293   0.22631728 
 1984000    345.22326   -30.336325   -30.559443   -30.559443   0.22311804 
 1985000    345.03628   -30.345947   -30.568944   -30.568944    0.2229972 
 1986000    342.27401   -30.344255   -30.565467   -30.565467   0.22121194 
 1987000     340.4114    -30.33829   -30.558298   -30.558298   0.22000814 
 1988000     339.7586   -30.338982   -30.558568   -30.558568   0.21958623 
 1989000    333.73298    -30.34774   -30.563432   -30.563432   0.21569187 
 1990000    327.73476   -30.352572   -30.564387   -30.564387   0.21181521 
 1991000    323.64844    -30.36503   -30.574204   -30.574204   0.20917422 
 1992000    322.95524   -30.356617   -30.565344   -30.565344    0.2087262 
 1993000    324.09522   -30.368493   -30.577956   -30.577956   0.20946298 
 1994000    320.77803    -30.36453   -30.571849   -30.571849   0.20731907 
 1995000     316.4458   -30.364542   -30.569061   -30.569061   0.20451915 
 1996000      309.529   -30.372489   -30.572538   -30.572538   0.20004882 
 1997000    308.66191   -30.376878   -30.576366   -30.576366   0.19948842 
 1998000    306.61169    -30.39133   -30.589493   -30.589493   0.19816336 
 1999000    304.35713   -30.383808   -30.580514   -30.580514   0.19670624 
 2000000    301.19465   -30.382603   -30.577265   -30.577265   0.19466232 
 2001000    295.43383   -30.386277   -30.577216   -30.577216    0.1909391 
 2002000    293.87113   -30.395982   -30.585911   -30.585911   0.18992912 
 2003000    291.31505   -30.405612   -30.593889   -30.593889   0.18827713 
 2004000    290.29241    -30.39996   -30.587576   -30.587576   0.18761619 
 2005000    285.66563    -30.39897   -30.583595   -30.583595   0.18462591 
 2006000    279.69855   -30.409853   -30.590623   -30.590623   0.18076938 
 2007000    278.98054   -30.415697   -30.596002   -30.596002   0.18030533 
 2008000    277.47407   -30.415493   -30.594824   -30.594824   0.17933169 
 2009000    274.03683   -30.412782   -30.589892   -30.589892    0.1771102 
 2010000    269.24144    -30.42187   -30.595881   -30.595881   0.17401094 
 2011000    267.22466    -30.43359   -30.606297   -30.606297   0.17270749 
 2012000    264.74884   -30.428825   -30.599932   -30.599932   0.17110737 
 2013000    260.47877   -30.426462   -30.594809   -30.594809   0.16834762 
 2014000    257.03737   -30.438519   -30.604643   -30.604643   0.16612344 
 2015000    255.13976   -30.441684   -30.606581   -30.606581   0.16489701 
 2016000    252.94541   -30.435792   -30.599271   -30.599271    0.1634788 
 2017000    248.50337   -30.446523   -30.607131   -30.607131   0.16060791 
 2018000    246.92841   -30.454458   -30.614048   -30.614048   0.15959001 
 2019000    243.84322    -30.44784   -30.605436   -30.605436   0.15759605 
 2020000    239.64543   -30.455381   -30.610265   -30.610265   0.15488301 
 2021000    237.67934   -30.465672   -30.619284   -30.619284   0.15361233 
 2022000    235.22888   -30.461412   -30.613441   -30.613441    0.1520286 
 2023000    229.45944   -30.461988   -30.610288   -30.610288    0.1482998 
 2024000    230.17546   -30.471759   -30.620521   -30.620521   0.14876257 
 2025000    225.91924   -30.474489   -30.620501   -30.620501   0.14601177 
 2026000    220.45926   -30.477439   -30.619921   -30.619921   0.14248298 
 2027000    219.82738   -30.478884   -30.620958   -30.620958   0.14207459 
 2028000     216.4092   -30.479846   -30.619712   -30.619712   0.13986542 
 2029000     212.9148   -30.491612   -30.629219   -30.629219   0.13760699 
 2030000    210.80769   -30.488096   -30.624341   -30.624341   0.13624516 
 2031000    206.37412   -30.494123   -30.627503   -30.627503   0.13337974 
 2032000    205.13064   -30.498944    -30.63152    -30.63152   0.13257608 
 2033000    200.85507   -30.496658   -30.626471   -30.626471   0.12981278 
 2034000    198.62265   -30.505071   -30.633441   -30.633441   0.12836996 
 2035000    196.48323   -30.504548   -30.631535   -30.631535   0.12698725 
 2036000    191.59145   -30.513658   -30.637483   -30.637483   0.12382569 
 2037000    189.94993     -30.5139   -30.636665   -30.636665   0.12276478 
 2038000     184.6977    -30.51757    -30.63694    -30.63694   0.11937026 
 2039000    183.59093   -30.519358   -30.638013   -30.638013   0.11865495 
 2040000    179.05696   -30.523775   -30.639499   -30.639499   0.11572464 
 2041000     177.4745   -30.529421   -30.644123   -30.644123    0.1147019 
 2042000    173.44039   -30.529646   -30.641741   -30.641741   0.11209465 
 2043000    172.37776   -30.534091   -30.645499   -30.645499   0.11140787 
 2044000    167.78814   -30.536447   -30.644889   -30.644889   0.10844159 
 2045000    166.09779   -30.541304   -30.648653   -30.648653   0.10734912 
 2046000     161.2989   -30.544416   -30.648664   -30.648664    0.1042476 
 2047000    159.91763   -30.545696   -30.649051   -30.649051   0.10335488 
 2048000    156.39299   -30.551183    -30.65226    -30.65226    0.1010769 
 2049000    153.98983   -30.554583   -30.654107   -30.654107   0.09952374 
 2050000    150.27959   -30.560911   -30.658037   -30.658037  0.097125805 
 2051000    147.25018   -30.560715   -30.655883   -30.655883  0.095167896 
 2052000    144.20259   -30.565772    -30.65897    -30.65897  0.093198237 
 2053000     140.3698   -30.566998   -30.657719   -30.657719    0.0907211 
 2054000    138.80442   -30.572796   -30.662506   -30.662506    0.0897094 
 2055000     134.9734   -30.578202   -30.665436   -30.665436  0.087233405 
 2056000    132.01148   -30.579286   -30.664605   -30.664605  0.085319116 
 2057000    129.51294   -30.585094   -30.668799   -30.668799  0.083704305 
 2058000    125.96067   -30.588026   -30.669435   -30.669435  0.081408475 
 2059000     123.6705   -30.588707   -30.668635   -30.668635  0.079928337 
 2060000     120.4155   -30.593456   -30.671281   -30.671281  0.077824625 
 2061000     116.6857   -30.596967   -30.672381   -30.672381  0.075414051 
 2062000    114.28566   -30.599423   -30.673286   -30.673286  0.073862908 
 2063000    111.73787   -30.604738   -30.676955   -30.676955  0.072216269 
 2064000    107.74424     -30.6081   -30.677735   -30.677735  0.069635178 
 2065000    104.89523   -30.610475   -30.678269   -30.678269  0.067793866 
 2066000    102.72793   -30.613989   -30.680382   -30.680382  0.066393138 
 2067000     99.23728   -30.619074   -30.683211   -30.683211  0.064137126 
 2068000    95.859175   -30.621489   -30.683443   -30.683443  0.061953854 
 2069000    92.984606   -30.624965   -30.685061   -30.685061  0.060096018 
 2070000    90.683891   -30.627718   -30.686328   -30.686328  0.058609064 
 2071000     87.24291   -30.632786   -30.689171   -30.689171  0.056385156 
 2072000     84.21116   -30.637211   -30.691637   -30.691637  0.054425734 
 2073000    80.931857   -30.638993   -30.691299   -30.691299  0.052306318 
 2074000    77.950168   -30.642875   -30.693254   -30.693254   0.05037925 
 2075000    75.305739    -30.64511   -30.693781   -30.693781  0.048670154 
 2076000    72.286716   -30.650253   -30.696972   -30.696972  0.046718957 
 2077000    69.315634   -30.653148   -30.697947   -30.697947  0.044798745 
 2078000    66.287504   -30.658028    -30.70087    -30.70087  0.042841662 
 2079000    63.110469   -30.660769   -30.701557   -30.701557  0.040788342 
 2080000    60.053678   -30.664967    -30.70378    -30.70378  0.038812735 
 2081000    57.008083   -30.667893   -30.704737   -30.704737  0.036844365 
 2082000    54.042299   -30.671142   -30.706069   -30.706069  0.034927577 
 2083000     51.08039   -30.675037    -30.70805    -30.70805  0.033013293 
 2084000    48.145749   -30.678527   -30.709644   -30.709644  0.031116632 
 2085000    45.113786    -30.68223   -30.711387   -30.711387  0.029157073 
 2086000     42.02553   -30.686124   -30.713286   -30.713286  0.027161131 
 2087000    39.060898   -30.689647   -30.714893   -30.714893  0.025245087 
 2088000    36.137578   -30.692953   -30.716309   -30.716309  0.023355743 
 2089000    33.130864   -30.696719   -30.718132   -30.718132  0.021412501 
 2090000    30.100302   -30.700524   -30.719978   -30.719978  0.019453847 
 2091000    27.171385   -30.704244   -30.721805   -30.721805  0.017560886 
 2092000    24.185977   -30.707905   -30.723536   -30.723536  0.015631415 
 2093000    21.110419   -30.711754   -30.725398   -30.725398  0.013643679 
 2094000    18.151317    -30.71574   -30.727472   -30.727472   0.01173121 
 2095000    15.259406   -30.719339   -30.729201   -30.729201 0.0098621652 
 2096000     12.19261   -30.722963   -30.730843   -30.730843 0.0078800925 
 2097000    9.1652446   -30.726982   -30.732905   -30.732905 0.0059235042 
 2098000    6.2093605   -30.730723   -30.734736   -30.734736 0.0040131142 
 2099000    3.1927106   -30.734569   -30.736632   -30.736632 0.0020634512 
 2100000   0.18471801   -30.738257   -30.738376   -30.738376 0.00011938338 
 2100047  0.037907835   -30.738396   -30.738421   -30.738421 2.4499861e-05 
Loop time of 14.0941 on 1 procs for 1000000 steps with 6 atoms

Performance: 613.023 ns/day, 0.039 hours/ns, 70951.789 timesteps/s
98.7% CPU use with 1 MPI tasks x 1 OpenMP threads
>>>>>>> 87615210ff3531047c4c2112d5ba92b34142a006

MPI task timing breakdown:
Section |  min time  |  avg time  |  max time  |%varavg| %total
---------------------------------------------------------------
<<<<<<< HEAD
Pair    | 8.1352     | 8.1352     | 8.1352     |   0.0 | 74.41
Neigh   | 0.065612   | 0.065612   | 0.065612   |   0.0 |  0.60
Comm    | 0.49531    | 0.49531    | 0.49531    |   0.0 |  4.53
Output  | 0.45652    | 0.45652    | 0.45652    |   0.0 |  4.18
Modify  | 1.439      | 1.439      | 1.439      |   0.0 | 13.16
Other   |            | 0.342      |            |       |  3.13
=======
Pair    | 11.817     | 11.817     | 11.817     |   0.0 | 83.85
Neigh   | 0.0015136  | 0.0015136  | 0.0015136  |   0.0 |  0.01
Comm    | 0.44829    | 0.44829    | 0.44829    |   0.0 |  3.18
Output  | 0.24152    | 0.24152    | 0.24152    |   0.0 |  1.71
Modify  | 1.2777     | 1.2777     | 1.2777     |   0.0 |  9.07
Other   |            | 0.3076     |            |       |  2.18
>>>>>>> 87615210ff3531047c4c2112d5ba92b34142a006

Nlocal:        6.00000 ave           6 max           6 min
Histogram: 1 0 0 0 0 0 0 0 0 0
Nghost:        42.0000 ave          42 max          42 min
Histogram: 1 0 0 0 0 0 0 0 0 0
Neighs:         0.00000 ave           0 max           0 min
Histogram: 1 0 0 0 0 0 0 0 0 0
FullNghs:      30.0000 ave          30 max          30 min
Histogram: 1 0 0 0 0 0 0 0 0 0

Total # of neighbors = 30
Ave neighs/atom = 5.0000000
<<<<<<< HEAD
Neighbor list builds = 1354
=======
Neighbor list builds = 32
>>>>>>> 87615210ff3531047c4c2112d5ba92b34142a006
Dangerous builds = 0
write_restart 	./endconf/endconf*3.restart
System init for write_restart ...

<<<<<<< HEAD
Total wall time: 0:00:22
=======
Total wall time: 0:00:27
>>>>>>> 87615210ff3531047c4c2112d5ba92b34142a006
