LAMMPS (7 Feb 2024 - Update 1)
OMP_NUM_THREADS environment is not set. Defaulting to 1 thread. (src/comm.cpp:98)
  using 1 OpenMP thread(s) per MPI task
# LAMMPS input script to load a restart file and perform minimization

#============Initialization=================
units 			metal
atom_style 		atomic


# Read the restart file directly
read_restart 	endconf/endconf21000703.restart
Reading restart file ...
  restart file = 7 Feb 2024, LAMMPS = 7 Feb 2024
  restoring atom style atomic from restart
  orthogonal box = (0 0 0) to (30 30 30)
  1 by 1 by 1 MPI processor grid
  pair style airebo stores no restart info
  6 atoms
  read_restart CPU = 0.011 seconds

#======Pair style for atom interactions=====
pair_style 		airebo 1.8 1 1
pair_coeff 		* * CH.airebo C
Reading airebo potential file CH.airebo with DATE: 2011-10-25

#=========Minimization settings==========
min_style       sd
minimize        1.0e-5 1.0e-7 500 1000
Unused restart file global fix info:
  fix style: temp/berendsen, fix ID: 5
Neighbor list info ...
  update: every = 1 steps, delay = 0 steps, check = yes
  max neighbors/atom: 2000, page size: 100000
  master list distance cutoff = 9.816371
  ghost atom cutoff = 9.816371
  binsize = 4.9081855, bins = 7 7 7
  1 neighbor lists, perpetual/occasional/extra = 1 0 0
  (1) pair airebo, perpetual
      attributes: full, newton on, ghost
      pair build: full/bin/ghost
      stencil: full/ghost/bin/3d
      bin: standard
Per MPI rank memory allocation (min/avg/max) = 5.007 | 5.007 | 5.007 Mbytes
   Step          Temp          E_pair         E_mol          TotEng         Press     
   2100070   0.03759972    -30.738409      0             -30.738385     -0.014377554  
   2100071   0.03759972    -30.738438      0             -30.738413      0.035873567  
Loop time of 0.0001043 on 1 procs for 1 steps with 6 atoms

85.3% CPU use with 1 MPI tasks x 1 OpenMP threads

Minimization stats:
  Stopping criterion = energy tolerance
  Energy initial, next-to-last, final = 
     -30.7384094961702  -30.7384094961702  -30.7384377422127
  Force two-norm initial, final = 0.040938235 0.064246373
  Force max component initial, final = 0.019381874 0.029733549
  Final line search alpha, max atom move = 1 0.029733549
  Iterations, force evaluations = 1 2

MPI task timing breakdown:
Section |  min time  |  avg time  |  max time  |%varavg| %total
---------------------------------------------------------------
Pair    | 7.09e-05   | 7.09e-05   | 7.09e-05   |   0.0 | 67.98
Neigh   | 0          | 0          | 0          |   0.0 |  0.00
Comm    | 5.7e-06    | 5.7e-06    | 5.7e-06    |   0.0 |  5.47
Output  | 0          | 0          | 0          |   0.0 |  0.00
Modify  | 0          | 0          | 0          |   0.0 |  0.00
Other   |            | 2.77e-05   |            |       | 26.56

Nlocal:              6 ave           6 max           6 min
Histogram: 1 0 0 0 0 0 0 0 0 0
Nghost:             42 ave          42 max          42 min
Histogram: 1 0 0 0 0 0 0 0 0 0
Neighs:              0 ave           0 max           0 min
Histogram: 1 0 0 0 0 0 0 0 0 0
FullNghs:           30 ave          30 max          30 min
Histogram: 1 0 0 0 0 0 0 0 0 0

Total # of neighbors = 30
Ave neighs/atom = 5
Neighbor list builds = 0
Dangerous builds = 0


# Output the minimized structure
write_data minimized_structure.data
System init for write_data ...
Total wall time: 0:00:00
