LAMMPS (7 Feb 2024 - Update 1)
OMP_NUM_THREADS environment is not set. Defaulting to 1 thread. (src/comm.cpp:98)
  using 1 OpenMP thread(s) per MPI task
#============Initialization=================
units 			metal
atom_style 		atomic
boundary 		f f f

#=========Simulation box definition=========
region 			bigbox block 0 12 0 12 0 12
create_box 		1 bigbox
Created orthogonal box = (0 0 0) to (12 12 12)
  1 by 1 by 1 MPI processor grid

#==================Atoms====================
region 			safezone block 1 10 1 10 1 10
create_atoms 	1 random 6 352710 safezone
Created 6 atoms
  using lattice units in orthogonal box = (0 0 0) to (12 12 12)
  create_atoms CPU = 0.002 seconds
labelmap 		atom 1 C
mass 			* 12.01

#==========Velocity initialization==========
velocity 		all create 1.0 12345 rot yes dist gaussian

#======Pair style for atom interactions=============
pair_style 		airebo 1.8
pair_coeff 		* * CH.airebo C
Reading airebo potential file CH.airebo with DATE: 2011-10-25

#==============Neighbor selection===================
neighbor 		0.3 bin
neigh_modify 	every 2 delay 10 check yes

#====Fixes for time integration and constraints=====
fix 			1 all nve
fix 			2 all temp/berendsen 300.0 3000.0 0.1

#==============Custom Wall force====================
#==========Wall with harmonic potential=============
variable        k equal 80.0

fix             xlo_wall all wall/harmonic xlo EDGE v_k 1.0 0.7
fix             xhi_wall all wall/harmonic xhi EDGE v_k 1.0 0.7
fix             ylo_wall all wall/harmonic ylo EDGE v_k 1.0 0.7
fix             yhi_wall all wall/harmonic yhi EDGE v_k 1.0 0.7
fix             zlo_wall all wall/harmonic zlo EDGE v_k 1.0 0.7
fix             zhi_wall all wall/harmonic zhi EDGE v_k 1.0 0.7

#=====================Timestep======================
timestep 		0.0001

#========System temperature printing info===========
thermo_style 	custom step temp etotal pe
thermo 			500

#===============Define dump command=================
dump 			1 all cfg 200 ./dump/dump.tensile_*.cfg mass type xs ys zs vx vy vz id

#================Run simulation=====================
run 			250000
Neighbor list info ...
  update: every = 2 steps, delay = 10 steps, check = yes
  max neighbors/atom: 2000, page size: 100000
  master list distance cutoff = 8.116371
  ghost atom cutoff = 8.116371
  binsize = 4.0581855, bins = 3 3 3
  1 neighbor lists, perpetual/occasional/extra = 1 0 0
  (1) pair airebo, perpetual
      attributes: full, newton on, ghost
      pair build: full/bin/ghost
      stencil: full/ghost/bin/3d
      bin: standard
Per MPI rank memory allocation (min/avg/max) = 3.854 | 3.854 | 3.854 Mbytes
   Step          Temp          TotEng         PotEng    
         0   1             -1.3125494     -1.3131957    
       500   4831.8768     -2.4130242     -5.5358697    
      1000   1883.724      -3.2331448     -4.450597     
      1500   393.58558     -3.8669034     -4.1212781    
      2000   2972.6904     -4.2922375     -6.2134895    
      2500   2494.4164     -4.591967      -6.2041102    
      3000   1846.5354     -4.8353189     -6.0287361    
      3500   654.49778     -5.0307005     -5.4537029    
      4000   42.147198     -5.17091       -5.1981498    
      4500   988.93642     -5.2883904     -5.9275407    
      5000   129.77177     -5.4018506     -5.4857222    
      5500   920.78825     -5.4884617     -6.0835678    
      6000   150.80692     -5.5430109     -5.6404775    
      6500   723.17884     -5.6011885     -6.0685795    
      7000   862.48559     -5.6419995     -6.1994246    
      7500   193.85282     -5.6687324     -5.7940197    
      8000   350.14568     -5.7012884     -5.9275878    
      8500   562.64512     -5.7247767     -6.0884147    
      9000   2722.8446     -6.3691408     -8.1289173    
      9500   6390.978      -7.8011752     -11.931669    
     10000   4866.239      -8.7960914     -11.941145    
     10500   3710.4516     -9.5821466     -11.980214    
     11000   172.86726     -10.102415     -10.214139    
     11500   436.819       -10.461748     -10.744064    
     12000   448.91081     -10.741604     -11.031735    
     12500   898.2475      -10.961864     -11.542402    
     13000   1880.7497     -11.156341     -12.37187     
     13500   107.76102     -11.307783     -11.377429    
     14000   1265.5689     -11.431992     -12.24993     
     14500   58.522701     -11.518528     -11.556352    
     15000   1025.7059     -11.587031     -12.249946    
     15500   403.35846     -11.647402     -11.908093    
     16000   405.17584     -11.701645     -11.963511    
     16500   769.7172      -11.727954     -12.225422    
     17000   424.15576     -11.759189     -12.033321    
     17500   424.45574     -11.787511     -12.061837    
     18000   884.12497     -11.796047     -12.367458    
     18500   754.44941     -11.812575     -12.300176    
     19000   199.81949     -11.82815      -11.957294    
     19500   660.70147     -11.840894     -12.267906    
     20000   676.37236     -11.84962      -12.28676     
     20500   366.35459     -11.849103     -12.085878    
     21000   255.24158     -11.855282     -12.020244    
     21500   427.87437     -11.861447     -12.137982    
     22000   836.83768     -11.863518     -12.404366    
     22500   875.12814     -11.868997     -12.434593    
     23000   518.04506     -11.871536     -12.206349    
     23500   412.49716     -11.876357     -12.142954    
     24000   486.27652     -11.881567     -12.195848    
     24500   700.94223     -11.879198     -12.332218    
     25000   677.40712     -11.879331     -12.31714     
     25500   388.82045     -11.874177     -12.125472    
     26000   385.39563     -11.873978     -12.123059    
     26500   402.01106     -11.87535      -12.13517     
     27000   787.50889     -11.872823     -12.381791    
     27500   795.0475      -11.874119     -12.387959    
     28000   713.96435     -11.869681     -12.331116    
     28500   675.11269     -11.87306      -12.309386    
     29000   464.69812     -11.874213     -12.174548    
     29500   608.69848     -11.87622      -12.269622    
     30000   571.14449     -11.875297     -12.244428    
     30500   672.80889     -11.869656     -12.304492    
     31000   659.21177     -11.86772      -12.293769    
     31500   483.85958     -11.862497     -12.175216    
     32000   494.25653     -11.860995     -12.180433    
     32500   593.33683     -11.859412     -12.242887    
     33000   720.23709     -11.856491     -12.321981    
     33500   834.22488     -11.853745     -12.392905    
     34000   769.17865     -11.848995     -12.346115    
     34500   754.8487      -11.846991     -12.33485     
     35000   611.77374     -11.8461       -12.24149     
     35500   607.88591     -11.844281     -12.237158    
     36000   687.38393     -11.849802     -12.294059    
     36500   771.8192      -11.849652     -12.34848     
     37000   816.92981     -11.856656     -12.384638    
     37500   741.72596     -11.861851     -12.341229    
     38000   743.28521     -11.86613      -12.346516    
     38500   594.33793     -11.86658      -12.250701    
     39000   634.0363      -11.867382     -12.27716     
     39500   612.8435      -11.867227     -12.263308    
     40000   782.7458      -11.86547      -12.371359    
     40500   782.77513     -11.865027     -12.370935    
     41000   853.93815     -11.860558     -12.412459    
     41500   856.61548     -11.859559     -12.41319     
     42000   811.89546     -11.850104     -12.374833    
     42500   825.56183     -11.844359     -12.37792     
     43000   667.26023     -11.838643     -12.269894    
     43500   663.55168     -11.836724     -12.265578    
     44000   627.80864     -11.835521     -12.241274    
     44500   730.27838     -11.8347       -12.306679    
     45000   729.88404     -11.832651     -12.304375    
     45500   872.52194     -11.829916     -12.393827    
     46000   867.01934     -11.829086     -12.389442    
     46500   7752.9431     -12.173602     -17.184335    
     47000   5979.5975     -13.842687     -17.707305    
     47500   11203.313     -15.84037      -23.081079    
     48000   6646.5067     -17.84489      -22.140532    
     48500   3850.3444     -19.261178     -21.749658    
     49000   4450.5284     -20.119408     -22.995787    
     49500   3608.8345     -21.184757     -23.51715     
     50000   1418.7145     -21.682172     -22.599089    
     50500   2529.9111     -22.136178     -23.771261    
     51000   1980.2371     -22.66601      -23.945839    
     51500   1239.5635     -22.852743     -23.653874    
     52000   2294.8777     -23.113261     -24.596442    
     52500   1196.9039     -23.30149      -24.075049    
     53000   780.92298     -23.414465     -23.919176    
     53500   1355.5173     -23.598764     -24.474836    
     54000   584.96673     -23.658912     -24.036976    
     54500   1383.9009     -23.751768     -24.646184    
     55000   879.81603     -23.809521     -24.378147    
     55500   1401.5775     -23.823155     -24.728996    
     56000   1158.7319     -23.879863     -24.628753    
     56500   1124.479      -23.854325     -24.581076    
     57000   826.44548     -23.888478     -24.422611    
     57500   948.88013     -23.890216     -24.503478    
     58000   714.51429     -23.904344     -24.366135    
     58500   842.90492     -23.926841     -24.471611    
     59000   1029.2407     -23.927261     -24.59246     
     59500   1034.4749     -23.932869     -24.601451    
     60000   875.62555     -23.924206     -24.490123    
     60500   1165.1999     -23.900218     -24.653288    
     61000   1157.4885     -23.914529     -24.662615    
     61500   848.16751     -23.892993     -24.441164    
     62000   911.51428     -23.901091     -24.490203    
     62500   951.08112     -23.904576     -24.51926     
     63000   721.78667     -23.883055     -24.349546    
     63500   988.5172      -23.899412     -24.538291    
     64000   975.19686     -23.85824      -24.48851     
     64500   1165.7955     -23.875744     -24.629199    
     65000   807.3804      -23.826588     -24.348399    
     65500   1300.9646     -23.867307     -24.708121    
     66000   781.99069     -23.831407     -24.336808    
     66500   1571.4108     -23.867702     -24.883306    
     67000   720.82241     -23.841081     -24.306949    
     67500   1263.5289     -23.836131     -24.652751    
     68000   820.17574     -23.864183     -24.394263    
     68500   1063.0872     -23.81627      -24.503344    
     69000   831.85563     -23.857158     -24.394787    
     69500   745.87728     -23.816359     -24.29842     
     70000   860.71508     -23.804121     -24.360402    
     70500   1173.1953     -23.808787     -24.567024    
     71000   1102.1917     -23.813467     -24.525815    
     71500   1276.9888     -23.844549     -24.669868    
     72000   1296.1413     -23.804664     -24.642361    
     72500   1209.4261     -23.845052     -24.626705    
     73000   1101.53       -23.789267     -24.501187    
     73500   1399.2993     -23.812109     -24.716477    
     74000   996.19606     -23.758744     -24.402586    
     74500   904.65365     -23.77056      -24.355239    
     75000   731.11521     -23.762567     -24.235087    
     75500   4784.4164     -24.224102     -27.316274    
     76000   3988.8219     -25.380374     -27.958353    
     76500   4029.934      -26.248566     -28.853116    
     77000   2465.9397     -26.995408     -28.589146    
     77500   3707.3878     -27.567937     -29.964025    
     78000   2246.3444     -28.055433     -29.507247    
     78500   2815.2349     -28.440873     -30.260362    
     79000   939.89767     -28.687348     -29.294804    
     79500   2233.6933     -28.880704     -30.324342    
     80000   1826.9725     -29.086738     -30.267511    
     80500   833.69033     -29.210984     -29.749799    
     81000   1630.472      -29.328135     -30.38191     
     81500   2319.7325     -29.416671     -30.915916    
     82000   1759.3836     -29.491372     -30.628463    
     82500   550.6048      -29.504357     -29.860213    
     83000   1437.9483     -29.565745     -30.495092    
     83500   1540.3157     -29.624903     -30.620411    
     84000   1594.9842     -29.628839     -30.659679    
     84500   1106.3059     -29.613811     -30.328817    
     85000   1152.8808     -29.654591     -30.399698    
     85500   1003.6965     -29.644544     -30.293234    
     86000   1629.8222     -29.630821     -30.684177    
     86500   950.20135     -29.650648     -30.264763    
     87000   1521.5345     -29.64618      -30.629549    
     87500   990.1547      -29.642973     -30.282911    
     88000   1323.989      -29.657455     -30.51315     
     88500   968.84411     -29.645014     -30.271178    
     89000   1664.8823     -29.62511      -30.701124    
     89500   1629.094      -29.643102     -30.695986    
     90000   381.83247     -29.644664     -29.891443    
     90500   1455.712      -29.627986     -30.568813    
     91000   1722.1787     -29.637253     -30.750299    
     91500   1530.1366     -29.636638     -30.625567    
     92000   817.54755     -29.59643      -30.124812    
     92500   1454.7427     -29.610088     -30.55029     
     93000   1555.9808     -29.61752      -30.623151    
     93500   1408.4767     -29.581046     -30.491346    
     94000   595.80255     -29.568774     -29.953842    
     94500   1004.2312     -29.614105     -30.263141    
     95000   1124.1832     -29.576155     -30.302715    
     95500   1704.3905     -29.537892     -30.639441    
     96000   935.42772     -29.581256     -30.185824    
     96500   669.14063     -29.551608     -29.984074    
     97000   941.41701     -29.52757      -30.136008    
     97500   1106.4902     -29.524025     -30.23915     
     98000   1267.1602     -29.547995     -30.366961    
     98500   1073.896      -29.517391     -30.21145     
     99000   1808.3374     -29.539109     -30.707838    
     99500   1358.6946     -29.51502      -30.393146    
    100000   1007.9522     -29.522719     -30.174159    
    100500   862.11788     -29.541077     -30.098265    
    101000   1228.2131     -29.515143     -30.308938    
    101500   2321.2797     -29.479404     -30.979649    
    102000   2091.6371     -29.520181     -30.872008    
    102500   455.03721     -29.500421     -29.794512    
    103000   1095.2404     -29.452436     -30.160291    
    103500   1243.464      -29.480199     -30.28385     
    104000   1512.0251     -29.448787     -30.42601     
    104500   1882.004      -29.431862     -30.648203    
    105000   1706.9482     -29.456839     -30.560041    
    105500   1076.9623     -29.46695      -30.162991    
    106000   1557.5883     -29.404703     -30.411373    
    106500   1438.5309     -29.451375     -30.381098    
    107000   980.58426     -29.455038     -30.088791    
    107500   1421.4927     -29.369619     -30.288331    
    108000   1677.3727     -29.391692     -30.475779    
    108500   1460.6589     -29.415472     -30.359497    
    109000   1305.5179     -29.352359     -30.196116    
    109500   1311.6169     -29.33627      -30.183969    
    110000   1009.3659     -29.384085     -30.036439    
    110500   1819.5797     -29.344525     -30.520521    
    111000   2302.7058     -29.374227     -30.862467    
    111500   1572.2197     -29.344815     -30.360941    
    112000   1165.359      -29.348402     -30.101574    
    112500   1016.0465     -29.330177     -29.986849    
    113000   1875.2962     -29.370226     -30.582231    
    113500   1049.8441     -29.317851     -29.996366    
    114000   1578.5558     -29.328089     -30.34831     
    114500   1399.5559     -29.358936     -30.26347     
    115000   1886.871      -29.35134      -30.570826    
    115500   1326.3322     -29.340913     -30.198122    
    116000   1548.5542     -29.320817     -30.321649    
    116500   1619.4552     -29.34907      -30.395725    
    117000   1697.0624     -29.353773     -30.450585    
    117500   2093.055      -29.294595     -30.647338    
    118000   1694.997      -29.34494      -30.440418    
    118500   811.88591     -29.347658     -29.87238     
    119000   1764.8196     -29.278302     -30.418907    
    119500   1658.0866     -29.290833     -30.362455    
    120000   1417.043      -29.3322       -30.248036    
    120500   1509.1571     -29.310774     -30.286144    
    121000   1060.652      -29.271138     -29.956638    
    121500   1392.3229     -29.346224     -30.246084    
    122000   938.34861     -29.342505     -29.94896     
    122500   2318.6124     -29.347858     -30.846379    
    123000   1049.007      -29.308669     -29.986643    
    123500   1977.5836     -29.284909     -30.563023    
    124000   1946.7718     -29.285532     -30.543732    
    124500   1416.0737     -29.346462     -30.261672    
    125000   2194.401      -29.412012     -30.830255    
    125500   1422.8997     -29.356544     -30.276165    
    126000   2114.7517     -29.413386     -30.780151    
    126500   1173.4257     -29.440481     -30.198867    
    127000   1739.2441     -29.385115     -30.50919     
    127500   1403.4178     -29.419914     -30.326944    
    128000   1870.2888     -29.45139      -30.660159    
    128500   1298.4551     -29.407506     -30.246698    
    129000   1461.4478     -29.421476     -30.366011    
    129500   2259.576      -29.440046     -30.900411    
    130000   1416.3576     -29.409775     -30.325168    
    130500   1498.2644     -29.428616     -30.396946    
    131000   1454.0679     -29.382807     -30.322572    
    131500   1294.5138     -29.371581     -30.208226    
    132000   2568.2226     -29.309319     -30.969163    
    132500   2169.7312     -29.381417     -30.783716    
    133000   1171.121      -29.406556     -30.163452    
    133500   1638.4617     -29.356244     -30.415183    
    134000   2080.4472     -29.38224      -30.726834    
    134500   1542.7071     -29.433727     -30.43078     
    135000   1532.0904     -29.349797     -30.339988    
    135500   1686.4823     -29.308969     -30.398944    
    136000   2408.1596     -29.369219     -30.925615    
    136500   1661.3936     -29.417045     -30.490805    
    137000   1556.7415     -29.40422      -30.410343    
    137500   2295.256      -29.410407     -30.893833    
    138000   2324.3406     -29.455252     -30.957475    
    138500   2059.8488     -29.418557     -30.749839    
    139000   1903.8375     -29.425111     -30.655562    
    139500   1913.4114     -29.478954     -30.715593    
    140000   1764.3823     -29.408435     -30.548757    
    140500   1845.2121     -29.410688     -30.60325     
    141000   1950.9652     -29.471392     -30.732303    
    141500   1522.1965     -29.444347     -30.428143    
    142000   1779.0348     -29.436027     -30.585818    
    142500   1822.1138     -29.45702      -30.634653    
    143000   1654.9629     -29.443051     -30.512655    
    143500   1737.6231     -29.428116     -30.551143    
    144000   2486.3823     -29.468668     -31.075618    
    144500   1486.3096     -29.450466     -30.411069    
    145000   2350.4197     -29.458116     -30.977194    
    145500   1603.0142     -29.479352     -30.515381    
    146000   1989.3174     -29.47994      -30.765638    
    146500   1505.943      -29.456649     -30.429941    
    147000   2271.3998     -29.489205     -30.957212    
    147500   2060.8292     -29.479515     -30.81143     
    148000   1806.1144     -29.440779     -30.608072    
    148500   1972.6676     -29.481769     -30.756705    
    149000   1428.1756     -29.472549     -30.39558     
    149500   2206.3989     -29.454412     -30.880409    
    150000   1742.3787     -29.477986     -30.604087    
    150500   1651.1695     -29.392855     -30.460007    
    151000   2111.1999     -29.366832     -30.731302    
    151500   2184.7157     -29.358413     -30.770396    
    152000   1481.4419     -29.313209     -30.270666    
    152500   1853.2817     -29.301926     -30.499703    
    153000   2125.3995     -29.33236      -30.706008    
    153500   1662.9073     -29.290156     -30.364894    
    154000   1845.743      -29.273853     -30.466758    
    154500   2077.5325     -29.277507     -30.620218    
    155000   2202.5678     -29.358967     -30.782488    
    155500   1730.1196     -29.305392     -30.423569    
    156000   2405.2485     -29.298581     -30.853095    
    156500   1812.2033     -29.353051     -30.524279    
    157000   1899.6976     -29.290955     -30.518731    
    157500   2210.8777     -29.289899     -30.71879     
    158000   2037.4372     -29.332321     -30.649118    
    158500   1889.8058     -29.300848     -30.522231    
    159000   1911.477      -29.255623     -30.491012    
    159500   2223.2425     -29.322059     -30.758943    
    160000   1472.0164     -29.320222     -30.271587    
    160500   1972.5179     -29.335627     -30.610467    
    161000   2274.6374     -29.551706     -31.021806    
    161500   1935.2128     -29.349063     -30.599792    
    162000   2088.496      -29.354866     -30.704662    
    162500   1791.867      -29.382043     -30.540128    
    163000   2255.586      -29.380982     -30.838769    
    163500   2043.446      -29.382569     -30.70325     
    164000   1970.0323     -29.390556     -30.663789    
    164500   1803.3819     -29.376095     -30.541622    
    165000   2108.6964     -29.380179     -30.743031    
    165500   2306.4123     -29.396494     -30.88713     
    166000   1814.4933     -29.382955     -30.555663    
    166500   2441.2743     -29.365219     -30.943017    
    167000   2218.8608     -29.362832     -30.796883    
    167500   1579.8731     -29.212715     -30.233788    
    168000   2354.5265     -29.120117     -30.641849    
    168500   1610.4859     -29.122175     -30.163033    
    169000   2029.5889     -29.086131     -30.397856    
    169500   1823.385      -29.011434     -30.189889    
    170000   1864.728      -28.958881     -30.164056    
    170500   2110.4218     -28.93861      -30.302577    
    171000   2407.4143     -28.866966     -30.42288     
    171500   2570.4779     -28.837984     -30.499285    
    172000   1771.0548     -28.930132     -30.074766    
    172500   1758.5472     -28.886595     -30.023146    
    173000   2766.3422     -28.797122     -30.585011    
    173500   2616.2986     -28.919345     -30.610261    
    174000   1587.4014     -28.878726     -29.904664    
    174500   1661.6764     -28.755364     -29.829307    
    175000   2384.4518     -28.817605     -30.358678    
    175500   2269.6212     -28.914411     -30.381269    
    176000   1377.9606     -28.81764      -29.708217    
    176500   2401.2123     -28.710963     -30.262868    
    177000   3149.0356     -28.855766     -30.89099     
    177500   1871.7366     -28.863136     -30.072841    
    178000   1670.1473     -28.763331     -29.842748    
    178500   2234.3269     -28.799857     -30.243905    
    179000   2174.1814     -28.8868       -30.291975    
    179500   2363.4726     -28.83621      -30.363724    
    180000   2373.299      -28.754435     -30.2883      
    180500   2361.1473     -28.82299      -30.349002    
    181000   1608.5067     -28.797432     -29.837011    
    181500   2196.8887     -28.760861     -30.180711    
    182000   2547.3075     -28.769208     -30.415535    
    182500   1333.6383     -28.919497     -29.781428    
    183000   2499.9676     -28.768596     -30.384327    
    183500   2334.7942     -28.833358     -30.342337    
    184000   2040.1544     -28.827387     -30.14594     
    184500   3304.9412     -28.890104     -31.02609     
    185000   2670.2126     -28.875493     -30.601253    
    185500   2708.294      -28.869414     -30.619787    
    186000   2759.7592     -28.867069     -30.650703    
    186500   1544.2457     -28.805701     -29.803748    
    187000   1884.3834     -28.725635     -29.943513    
    187500   2452.4784     -28.747309     -30.332348    
    188000   2675.8151     -28.79476      -30.524141    
    188500   1589.0428     -29.098974     -30.125974    
    189000   2587.9007     -28.827663     -30.500225    
    189500   2380.2904     -28.837604     -30.375988    
    190000   2427.488      -28.833136     -30.402024    
    190500   2652.622      -28.842684     -30.557075    
    191000   2465.6266     -28.889348     -30.482884    
    191500   2030.1526     -28.89468      -30.206769    
    192000   2715.0203     -28.899823     -30.654543    
    192500   1507.5921     -29.312121     -30.286478    
    193000   2928.9203     -28.842613     -30.735576    
    193500   1987.3513     -28.912967     -30.197394    
    194000   2156.5614     -28.838178     -30.231965    
    194500   2575.3028     -28.812535     -30.476955    
    195000   1899.7541     -28.823311     -30.051123    
    195500   2334.3684     -28.848391     -30.357095    
    196000   2743.2012     -28.808113     -30.581046    
    196500   3404.2274     -28.812253     -31.012408    
    197000   2526.4324     -28.850848     -30.483683    
    197500   1908.8096     -28.836715     -30.07038     
    198000   1355.7789     -28.699458     -29.575699    
    198500   2488.9749     -28.595546     -30.204172    
    199000   2723.0143     -28.532776     -30.292662    
    199500   3200.5466     -28.622387     -30.690903    
    200000   2292.0891     -28.742257     -30.223636    
    200500   2363.1054     -28.651601     -30.178877    
    201000   2887.7018     -28.744403     -30.610727    
    201500   3137.9386     -28.683399     -30.711451    
    202000   2693.9077     -28.695623     -30.436698    
    202500   2565.1472     -28.650671     -30.308528    
    203000   2665.4063     -28.656761     -30.379415    
    203500   2589.1325     -28.669097     -30.342455    
    204000   2693.1474     -28.64489      -30.385473    
    204500   2769.3338     -28.69611      -30.485932    
    205000   2356.5255     -28.740323     -30.263348    
    205500   2929.2042     -28.717955     -30.611102    
    206000   2668.066      -28.709574     -30.433947    
    206500   2176.108      -28.70654      -30.11296     
    207000   2994.3408     -28.711833     -30.647078    
    207500   2607.4127     -28.7598       -30.444973    
    208000   2157.8365     -28.739286     -30.133897    
    208500   2808.0761     -28.748183     -30.563045    
    209000   2523.3333     -28.761485     -30.392317    
    209500   2408.3821     -28.755194     -30.311733    
    210000   2442.3841     -28.758462     -30.336977    
    210500   2405.8219     -28.781898     -30.336782    
    211000   2573.8133     -28.762893     -30.42635     
    211500   2334.961      -28.734098     -30.243185    
    212000   3023.0861     -28.756981     -30.710804    
    212500   2722.6628     -28.819781     -30.57944     
    213000   2846.2757     -28.729852     -30.569402    
    213500   2158.8689     -28.692074     -30.087353    
    214000   2784.2329     -28.686358     -30.48581     
    214500   2394.717      -28.587685     -30.135393    
    215000   2311.0475     -28.591327     -30.084958    
    215500   2600.3135     -28.603801     -30.284385    
    216000   2624.6052     -28.607767     -30.304051    
    216500   2628.0751     -28.667575     -30.366101    
    217000   2587.2844     -28.654627     -30.32679     
    217500   2166.7068     -28.640984     -30.041328    
    218000   2775.4881     -28.610515     -30.404315    
    218500   2535.5881     -28.654984     -30.293737    
    219000   3022.415      -28.659924     -30.613313    
    219500   3209.1365     -28.710268     -30.784335    
    220000   1947.7855     -28.681775     -29.94063     
    220500   2616.1483     -28.591616     -30.282434    
    221000   3037.2218     -28.587697     -30.550655    
    221500   2553.4313     -28.673577     -30.323862    
    222000   2514.9716     -28.629244     -30.254672    
    222500   2133.5041     -28.845333     -30.224218    
    223000   2732.4395     -28.549052     -30.31503     
    223500   3056.4188     -28.607431     -30.582796    
    224000   1778.3764     -28.54607      -29.695436    
    224500   2536.4277     -28.435768     -30.075063    
    225000   2747.6511     -28.428703     -30.204512    
    225500   2839.1186     -28.435237     -30.270162    
    226000   2543.5412     -28.402007     -30.045899    
    226500   2213.718      -28.324791     -29.755519    
    227000   2769.5434     -28.536539     -30.326497    
    227500   1968.0112     -28.427657     -29.699584    
    228000   3160.8389     -28.375314     -30.418166    
    228500   3324.8522     -28.452913     -30.601768    
    229000   2534.3227     -28.528123     -30.166058    
    229500   3007.7188     -28.467508     -30.411399    
    230000   2569.9959     -28.361772     -30.022763    
    230500   3224.8772     -28.498218     -30.582459    
    231000   2980.845      -28.517785     -30.444307    
    231500   2432.8831     -28.382371     -29.954745    
    232000   2964.114      -28.40331      -30.319019    
    232500   2891.0112     -28.53461      -30.403072    
    233000   2628.2099     -28.483155     -30.181769    
    233500   2634.1496     -28.41793      -30.120382    
    234000   4044.8639     -28.362154     -30.976352    
    234500   2239.4399     -28.395549     -29.842901    
    235000   3173.2902     -28.310254     -30.361154    
    235500   3130.0572     -28.360631     -30.383589    
    236000   2417.1447     -28.270258     -29.832461    
    236500   3019.3871     -28.246143     -30.197575    
    237000   3066.7786     -28.309411     -30.291473    
    237500   2685.904      -28.318309     -30.05421     
    238000   2838.1921     -28.210516     -30.044842    
    238500   2697.5606     -28.199797     -29.943232    
    239000   2328.2923     -28.179446     -29.684223    
    239500   2423.3404     -28.124221     -29.690427    
    240000   2762.9301     -28.231651     -30.017334    
    240500   3325.9702     -28.215279     -30.364856    
    241000   2170.7731     -28.142871     -29.545843    
    241500   3201.475      -28.21564      -30.284755    
    242000   3641.7363     -28.241651     -30.595308    
    242500   3131.3695     -28.175234     -30.19904     
    243000   2496.3128     -28.18114      -29.794509    
    243500   3286.2932     -28.250714     -30.374648    
    244000   3417.8518     -28.212366     -30.421326    
    244500   3033.0036     -28.248234     -30.208466    
    245000   2267.7314     -28.263123     -29.728759    
    245500   1906.7509     -28.175158     -29.407492    
    246000   2546.361      -28.107195     -29.75291     
    246500   3140.4767     -28.010123     -30.039815    
    247000   3217.411      -28.021819     -30.101234    
    247500   2266.7964     -28.017631     -29.482663    
    248000   3453.1195     -27.967607     -30.199361    
    248500   2718.3327     -28.011665     -29.768525    
    249000   3316.514      -28.007454     -30.15092     
    249500   2662.7178     -27.968374     -29.689291    
    250000   3572.4538     -28.005559     -30.314438    
Loop time of 9.92699 on 1 procs for 250000 steps with 6 atoms

Performance: 217.589 ns/day, 0.110 hours/ns, 25183.869 timesteps/s, 151.103 katom-step/s
15.9% CPU use with 1 MPI tasks x 1 OpenMP threads

MPI task timing breakdown:
Section |  min time  |  avg time  |  max time  |%varavg| %total
---------------------------------------------------------------
Pair    | 0.90846    | 0.90846    | 0.90846    |   0.0 |  9.15
Neigh   | 0.014243   | 0.014243   | 0.014243   |   0.0 |  0.14
Comm    | 0.025694   | 0.025694   | 0.025694   |   0.0 |  0.26
Output  | 8.4587     | 8.4587     | 8.4587     |   0.0 | 85.21
Modify  | 0.44551    | 0.44551    | 0.44551    |   0.0 |  4.49
Other   |            | 0.07439    |            |       |  0.75

Nlocal:              6 ave           6 max           6 min
Histogram: 1 0 0 0 0 0 0 0 0 0
Nghost:              0 ave           0 max           0 min
Histogram: 1 0 0 0 0 0 0 0 0 0
Neighs:              0 ave           0 max           0 min
Histogram: 1 0 0 0 0 0 0 0 0 0
FullNghs:           30 ave          30 max          30 min
Histogram: 1 0 0 0 0 0 0 0 0 0

Total # of neighbors = 30
Ave neighs/atom = 5
Neighbor list builds = 3823
Dangerous builds = 0
Total wall time: 0:00:09
