LAMMPS (28 Jul 2015)
WARNING: OMP_NUM_THREADS environment is not set. (../comm.cpp:89)
  using 1 OpenMP thread(s) per MPI task
# REAX potential for CHO system
# .....

units		real

atom_style	charge
read_data	C4-l.CHO
  orthogonal box = (-200 -200 -200) to (200 200 200)
  1 by 1 by 1 MPI processor grid
  reading atoms ...
  4 atoms

pair_style	reax/c lmp_control
#pair_style	reax/c NULL
pair_coeff	* * ffield.reax.cho H C O
Reading potential file ffield.reax.cho with DATE: 2011-02-18
fix             2 all qeq/reax 1 0.0 10.0 1e-6 param.qeq

neighbor	2 bin
neigh_modify    delay 0 every 1 check yes

# ---------- Run Minimization ---------------------

fix 1 all box/relax iso 1.0 vmax 0.0001

variable pekJ equal pe*4.184

thermo 100
#thermo_style custom  step pe v_pekJ enthalpy press vol density temp
thermo_style custom  step pe v_pekJ

#min_style cg
#minimize 1e-25 1e-25 5000 10000
#unfix 1

dump 		1 all cfg 200 ./dump/dump.tensile_*.cfg mass type xs ys zs mass q
dump		2 all atom 20 tmp.dump

min_style       sd
minimize        1.0e-16 1.0e-16 100000 100000
Neighbor list info ...
  2 neighbor list requests
  update every 1 steps, delay 0 steps, check yes
  master list distance cutoff = 12
  ghost atom cutoff = 12
Memory usage per processor = 10.2981 Mbytes
Step PotEng pekJ 
       0   -534.77786   -2237.5106 
     100   -530.78365   -2220.7988 
     200   -524.47007   -2194.3828 
     300   -524.22524   -2193.3584 
     400   -525.17202   -2197.3197 
     500   -525.68609   -2199.4706 
     600   -526.17296   -2201.5077 
     700   -526.65394   -2203.5201 
     800   -527.13001    -2205.512 
     900    -527.6006   -2207.4809 
    1000   -528.06499   -2209.4239 
    1100   -528.52241   -2211.3377 
    1200   -528.97216   -2213.2195 
    1300   -529.41372    -2215.067 
    1400   -529.84677   -2216.8789 
    1500   -530.27124   -2218.6549 
    1600   -530.68736   -2220.3959 
    1700   -531.09558   -2222.1039 
    1800   -531.49659   -2223.7817 
    1900   -531.89127   -2225.4331 
    2000   -532.28067   -2227.0623 
    2100   -532.66598   -2228.6745 
    2200   -533.04858   -2230.2753 
    2300      -533.43   -2231.8711 
    2400   -533.81202   -2233.4695 
    2500    -534.1967    -2235.079 
    2600   -534.58651     -2236.71 
    2700    -534.9845   -2238.3752 
    2800   -535.39452   -2240.0907 
    2900   -535.82159   -2241.8776 
    3000   -536.27241   -2243.7638 
    3100   -536.75611   -2245.7876 
    3200   -537.28522   -2248.0014 
    3300   -537.87657   -2250.4756 
    3400   -538.55052   -2253.2954 
    3500   -539.32447   -2256.5336 
    3600   -540.19498   -2260.1758 
    3700   -541.11791   -2264.0373 
    3800   -542.02172   -2267.8189 
    3900    -542.8528   -2271.2961 
    4000   -543.59487   -2274.4009 
    4100   -544.25367   -2277.1573 
    4200   -544.84045   -2279.6124 
    4300   -545.36549   -2281.8092 
    4400   -545.83703   -2283.7821 
    4500   -546.26164   -2285.5587 
    4600   -546.64463   -2287.1611 
    4700   -546.99046   -2288.6081 
    4800   -547.30288   -2289.9153 
    4900   -547.58515   -2291.0963 
    5000   -547.85759   -2292.2361 
    5100   -548.09394   -2293.2251 
    5200   -548.31563   -2294.1526 
    5300   -548.47246   -2294.8088 
    5400   -548.81958   -2296.2611 
    5500   -548.90198   -2296.6059 
    5600   -549.08969   -2297.3913 
    5700   -549.07047   -2297.3108 
    5800   -549.14696   -2297.6309 
    5900   -549.33969   -2298.4372 
    6000    -549.3149   -2298.3335 
    6100    -549.2905   -2298.2314 
    6200   -549.29025   -2298.2304 
    6300   -549.37907    -2298.602 
    6400   -549.36997    -2298.564 
    6500   -549.39444   -2298.6663 
    6600   -549.49102   -2299.0704 
    6700   -549.47029   -2298.9837 
    6800    -549.4858   -2299.0486 
    6881   -549.48549   -2299.0473 
Loop time of 0.345862 on 1 procs (1 MPI x 1 OpenMP) for 6881 steps with 4 atoms

Minimization stats:
  Stopping criterion = linesearch alpha is zero
  Energy initial, next-to-last, final = 
        -534.777858032     -1432.90822136     -1432.90822136
  Force two-norm initial, final = 2508.91 52.8282
  Force max component initial, final = 2501.43 34.8485
  Final line search alpha, max atom move = 3.18083e-12 1.10847e-10
  Iterations, force evaluations = 6881 7397

Pair  time (%) = 0.225296 (65.1406)
Neigh time (%) = 0.0181797 (5.25633)
Comm  time (%) = 0.0118845 (3.43618)
Outpt time (%) = 0.0108509 (3.13735)
Other time (%) = 0.0796504 (23.0295)

Nlocal:    4 ave 4 max 4 min
Histogram: 1 0 0 0 0 0 0 0 0 0
Nghost:    0 ave 0 max 0 min
Histogram: 1 0 0 0 0 0 0 0 0 0
Neighs:    6 ave 6 max 6 min
Histogram: 1 0 0 0 0 0 0 0 0 0

Total # of neighbors = 6
Ave neighs/atom = 1.5
Neighbor list builds = 215
Dangerous builds = 0

unfix 1

reset_timestep 0






Please see the log.cite file for references relevant to this simulation

