ITEM: TIMESTEP
0
ITEM: NUMBER OF ATOMS
4
ITEM: BOX BOUNDS pp pp pp
-200 200
-200 200
-200 200
ITEM: ATOMS id type xs ys zs
1 2 0.474436 0.501266 0.507771
2 2 0.477649 0.501626 0.507331
3 2 0.480804 0.501978 0.506898
4 2 0.484017 0.502338 0.506458
ITEM: TIMESTEP
20
ITEM: NUMBER OF ATOMS
4
ITEM: BOX BOUNDS pp pp pp
-199.6 199.6
-199.6 199.6
-199.6 199.6
ITEM: ATOMS id type xs ys zs
1 2 0.474436 0.501266 0.507771
2 2 0.477649 0.501626 0.507331
3 2 0.480804 0.501978 0.506898
4 2 0.484017 0.502338 0.506458
ITEM: TIMESTEP
40
ITEM: NUMBER OF ATOMS
4
ITEM: BOX BOUNDS pp pp pp
-199.2 199.2
-199.2 199.2
-199.2 199.2
ITEM: ATOMS id type xs ys zs
1 2 0.474436 0.501266 0.507772
2 2 0.477648 0.501625 0.507331
3 2 0.480805 0.501978 0.506898
4 2 0.484017 0.502338 0.506458
ITEM: TIMESTEP
60
ITEM: NUMBER OF ATOMS
4
ITEM: BOX BOUNDS pp pp pp
-198.8 198.8
-198.8 198.8
-198.8 198.8
ITEM: ATOMS id type xs ys zs
1 2 0.474436 0.501266 0.507772
2 2 0.477648 0.501625 0.507331
3 2 0.480805 0.501978 0.506898
4 2 0.484017 0.502338 0.506458
ITEM: TIMESTEP
80
ITEM: NUMBER OF ATOMS
4
ITEM: BOX BOUNDS pp pp pp
-198.4 198.4
-198.4 198.4
-198.4 198.4
ITEM: ATOMS id type xs ys zs
1 2 0.474436 0.501266 0.507772
2 2 0.477648 0.501625 0.507331
3 2 0.480806 0.501979 0.506898
4 2 0.484018 0.502338 0.506458
ITEM: TIMESTEP
100
ITEM: NUMBER OF ATOMS
4
ITEM: BOX BOUNDS pp pp pp
-198 198
-198 198
-198 198
ITEM: ATOMS id type xs ys zs
1 2 0.474435 0.501266 0.507772
2 2 0.477647 0.501625 0.507331
3 2 0.480806 0.501979 0.506898
4 2 0.484018 0.502338 0.506458
ITEM: TIMESTEP
120
ITEM: NUMBER OF ATOMS
4
ITEM: BOX BOUNDS pp pp pp
-197.6 197.6
-197.6 197.6
-197.6 197.6
ITEM: ATOMS id type xs ys zs
1 2 0.474435 0.501266 0.507772
2 2 0.477646 0.501625 0.507331
3 2 0.480807 0.501979 0.506898
4 2 0.484018 0.502338 0.506458
ITEM: TIMESTEP
140
ITEM: NUMBER OF ATOMS
4
ITEM: BOX BOUNDS pp pp pp
-197.2 197.2
-197.2 197.2
-197.2 197.2
ITEM: ATOMS id type xs ys zs
1 2 0.474435 0.501266 0.507772
2 2 0.477645 0.501625 0.507331
3 2 0.480808 0.501979 0.506898
4 2 0.484018 0.502338 0.506458
ITEM: TIMESTEP
160
ITEM: NUMBER OF ATOMS
4
ITEM: BOX BOUNDS pp pp pp
-196.8 196.8
-196.8 196.8
-196.8 196.8
ITEM: ATOMS id type xs ys zs
1 2 0.474435 0.501266 0.507772
2 2 0.477644 0.501625 0.507332
3 2 0.48081 0.501979 0.506898
4 2 0.484018 0.502338 0.506458
ITEM: TIMESTEP
180
ITEM: NUMBER OF ATOMS
4
ITEM: BOX BOUNDS pp pp pp
-196.4 196.4
-196.4 196.4
-196.4 196.4
ITEM: ATOMS id type xs ys zs
1 2 0.474435 0.501266 0.507772
2 2 0.477642 0.501625 0.507332
3 2 0.480811 0.501979 0.506897
4 2 0.484019 0.502338 0.506458
ITEM: TIMESTEP
200
ITEM: NUMBER OF ATOMS
4
ITEM: BOX BOUNDS pp pp pp
-196 196
-196 196
-196 196
ITEM: ATOMS id type xs ys zs
1 2 0.474434 0.501266 0.507772
2 2 0.477639 0.501624 0.507332
3 2 0.480814 0.501979 0.506897
4 2 0.484019 0.502338 0.506457
ITEM: TIMESTEP
220
ITEM: NUMBER OF ATOMS
4
ITEM: BOX BOUNDS pp pp pp
-195.6 195.6
-195.6 195.6
-195.6 195.6
ITEM: ATOMS id type xs ys zs
1 2 0.474434 0.501266 0.507772
2 2 0.477636 0.501624 0.507333
3 2 0.480817 0.50198 0.506897
4 2 0.484019 0.502338 0.506457
ITEM: TIMESTEP
240
ITEM: NUMBER OF ATOMS
4
ITEM: BOX BOUNDS pp pp pp
-195.2 195.2
-195.2 195.2
-195.2 195.2
ITEM: ATOMS id type xs ys zs
1 2 0.474433 0.501266 0.507772
2 2 0.477632 0.501624 0.507333
3 2 0.480821 0.50198 0.506896
4 2 0.48402 0.502338 0.506457
ITEM: TIMESTEP
260
ITEM: NUMBER OF ATOMS
4
ITEM: BOX BOUNDS pp pp pp
-194.8 194.8
-194.8 194.8
-194.8 194.8
ITEM: ATOMS id type xs ys zs
1 2 0.47443 0.501266 0.507772
2 2 0.477626 0.501623 0.507334
3 2 0.480827 0.501981 0.506895
4 2 0.484023 0.502338 0.506457
ITEM: TIMESTEP
280
ITEM: NUMBER OF ATOMS
4
ITEM: BOX BOUNDS pp pp pp
-194.4 194.4
-194.4 194.4
-194.4 194.4
ITEM: ATOMS id type xs ys zs
1 2 0.474426 0.501265 0.507773
2 2 0.477618 0.501622 0.507335
3 2 0.480835 0.501982 0.506894
4 2 0.484027 0.502339 0.506456
ITEM: TIMESTEP
300
ITEM: NUMBER OF ATOMS
4
ITEM: BOX BOUNDS pp pp pp
-194 194
-194 194
-194 194
ITEM: ATOMS id type xs ys zs
1 2 0.474419 0.501264 0.507774
2 2 0.47761 0.501621 0.507336
3 2 0.480843 0.501983 0.506893
4 2 0.484034 0.50234 0.506455
ITEM: TIMESTEP
320
ITEM: NUMBER OF ATOMS
4
ITEM: BOX BOUNDS pp pp pp
-193.6 193.6
-193.6 193.6
-193.6 193.6
ITEM: ATOMS id type xs ys zs
1 2 0.474411 0.501263 0.507775
2 2 0.477604 0.501621 0.507337
3 2 0.480849 0.501983 0.506892
4 2 0.484043 0.50234 0.506454
ITEM: TIMESTEP
340
ITEM: NUMBER OF ATOMS
4
ITEM: BOX BOUNDS pp pp pp
-193.2 193.2
-193.2 193.2
-193.2 193.2
ITEM: ATOMS id type xs ys zs
1 2 0.474401 0.501262 0.507776
2 2 0.477599 0.50162 0.507338
3 2 0.480854 0.501984 0.506891
4 2 0.484052 0.502342 0.506453
ITEM: TIMESTEP
360
ITEM: NUMBER OF ATOMS
4
ITEM: BOX BOUNDS pp pp pp
-192.8 192.8
-192.8 192.8
-192.8 192.8
ITEM: ATOMS id type xs ys zs
1 2 0.474391 0.501261 0.507778
2 2 0.477594 0.501619 0.507338
3 2 0.480859 0.501985 0.506891
4 2 0.484062 0.502343 0.506452
ITEM: TIMESTEP
380
ITEM: NUMBER OF ATOMS
4
ITEM: BOX BOUNDS pp pp pp
-192.4 192.4
-192.4 192.4
-192.4 192.4
ITEM: ATOMS id type xs ys zs
1 2 0.474381 0.50126 0.507779
2 2 0.47759 0.501619 0.507339
3 2 0.480863 0.501985 0.50689
4 2 0.484072 0.502344 0.50645
ITEM: TIMESTEP
400
ITEM: NUMBER OF ATOMS
4
ITEM: BOX BOUNDS pp pp pp
-192 192
-192 192
-192 192
ITEM: ATOMS id type xs ys zs
1 2 0.474371 0.501259 0.50778
2 2 0.477586 0.501619 0.50734
3 2 0.480867 0.501985 0.50689
4 2 0.484082 0.502345 0.506449
ITEM: TIMESTEP
420
ITEM: NUMBER OF ATOMS
4
ITEM: BOX BOUNDS pp pp pp
-191.6 191.6
-191.6 191.6
-191.6 191.6
ITEM: ATOMS id type xs ys zs
1 2 0.474361 0.501258 0.507782
2 2 0.477582 0.501618 0.50734
3 2 0.480871 0.501986 0.506889
4 2 0.484092 0.502346 0.506447
ITEM: TIMESTEP
440
ITEM: NUMBER OF ATOMS
4
ITEM: BOX BOUNDS pp pp pp
-191.2 191.2
-191.2 191.2
-191.2 191.2
ITEM: ATOMS id type xs ys zs
1 2 0.47435 0.501257 0.507783
2 2 0.477579 0.501618 0.507341
3 2 0.480874 0.501986 0.506889
4 2 0.484103 0.502347 0.506446
ITEM: TIMESTEP
460
ITEM: NUMBER OF ATOMS
4
ITEM: BOX BOUNDS pp pp pp
-190.8 190.8
-190.8 190.8
-190.8 190.8
ITEM: ATOMS id type xs ys zs
1 2 0.47434 0.501256 0.507785
2 2 0.477575 0.501617 0.507341
3 2 0.480878 0.501987 0.506888
4 2 0.484113 0.502348 0.506445
ITEM: TIMESTEP
480
ITEM: NUMBER OF ATOMS
4
ITEM: BOX BOUNDS pp pp pp
-190.4 190.4
-190.4 190.4
-190.4 190.4
ITEM: ATOMS id type xs ys zs
1 2 0.474329 0.501254 0.507786
2 2 0.477572 0.501617 0.507342
3 2 0.480882 0.501987 0.506888
4 2 0.484124 0.50235 0.506443
ITEM: TIMESTEP
500
ITEM: NUMBER OF ATOMS
4
ITEM: BOX BOUNDS pp pp pp
-190 190
-190 190
-190 190
ITEM: ATOMS id type xs ys zs
1 2 0.474319 0.501253 0.507788
2 2 0.477568 0.501616 0.507342
3 2 0.480885 0.501987 0.506887
4 2 0.484134 0.502351 0.506442
ITEM: TIMESTEP
520
ITEM: NUMBER OF ATOMS
4
ITEM: BOX BOUNDS pp pp pp
-189.6 189.6
-189.6 189.6
-189.6 189.6
ITEM: ATOMS id type xs ys zs
1 2 0.474308 0.501252 0.507789
2 2 0.477564 0.501616 0.507343
3 2 0.480889 0.501988 0.506887
4 2 0.484145 0.502352 0.50644
ITEM: TIMESTEP
540
ITEM: NUMBER OF ATOMS
4
ITEM: BOX BOUNDS pp pp pp
-189.2 189.2
-189.2 189.2
-189.2 189.2
ITEM: ATOMS id type xs ys zs
1 2 0.474298 0.501251 0.50779
2 2 0.477561 0.501616 0.507343
3 2 0.480892 0.501988 0.506886
4 2 0.484155 0.502353 0.506439
ITEM: TIMESTEP
560
ITEM: NUMBER OF ATOMS
4
ITEM: BOX BOUNDS pp pp pp
-188.8 188.8
-188.8 188.8
-188.8 188.8
ITEM: ATOMS id type xs ys zs
1 2 0.474287 0.50125 0.507792
2 2 0.477557 0.501615 0.507344
3 2 0.480896 0.501989 0.506886
4 2 0.484166 0.502354 0.506437
ITEM: TIMESTEP
580
ITEM: NUMBER OF ATOMS
4
ITEM: BOX BOUNDS pp pp pp
-188.4 188.4
-188.4 188.4
-188.4 188.4
ITEM: ATOMS id type xs ys zs
1 2 0.474276 0.501248 0.507793
2 2 0.477553 0.501615 0.507344
3 2 0.4809 0.501989 0.506885
4 2 0.484177 0.502355 0.506436
ITEM: TIMESTEP
600
ITEM: NUMBER OF ATOMS
4
ITEM: BOX BOUNDS pp pp pp
-188 188
-188 188
-188 188
ITEM: ATOMS id type xs ys zs
1 2 0.474266 0.501247 0.507795
2 2 0.47755 0.501614 0.507345
3 2 0.480903 0.501989 0.506885
4 2 0.484187 0.502357 0.506434
ITEM: TIMESTEP
620
ITEM: NUMBER OF ATOMS
4
ITEM: BOX BOUNDS pp pp pp
-187.6 187.6
-187.6 187.6
-187.6 187.6
ITEM: ATOMS id type xs ys zs
1 2 0.474255 0.501246 0.507796
2 2 0.477546 0.501614 0.507345
3 2 0.480907 0.50199 0.506884
4 2 0.484198 0.502358 0.506433
ITEM: TIMESTEP
640
ITEM: NUMBER OF ATOMS
4
ITEM: BOX BOUNDS pp pp pp
-187.2 187.2
-187.2 187.2
-187.2 187.2
ITEM: ATOMS id type xs ys zs
1 2 0.474244 0.501245 0.507798
2 2 0.477542 0.501614 0.507346
3 2 0.480911 0.50199 0.506884
4 2 0.484209 0.502359 0.506431
ITEM: TIMESTEP
660
ITEM: NUMBER OF ATOMS
4
ITEM: BOX BOUNDS pp pp pp
-186.8 186.8
-186.8 186.8
-186.8 186.8
ITEM: ATOMS id type xs ys zs
1 2 0.474233 0.501244 0.507799
2 2 0.477539 0.501613 0.507346
3 2 0.480914 0.501991 0.506883
4 2 0.48422 0.50236 0.50643
ITEM: TIMESTEP
680
ITEM: NUMBER OF ATOMS
4
ITEM: BOX BOUNDS pp pp pp
-186.4 186.4
-186.4 186.4
-186.4 186.4
ITEM: ATOMS id type xs ys zs
1 2 0.474222 0.501242 0.507801
2 2 0.477535 0.501613 0.507347
3 2 0.480918 0.501991 0.506883
4 2 0.484231 0.502362 0.506428
ITEM: TIMESTEP
700
ITEM: NUMBER OF ATOMS
4
ITEM: BOX BOUNDS pp pp pp
-186 186
-186 186
-186 186
ITEM: ATOMS id type xs ys zs
1 2 0.474211 0.501241 0.507802
2 2 0.477531 0.501612 0.507347
3 2 0.480922 0.501992 0.506882
4 2 0.484242 0.502363 0.506427
ITEM: TIMESTEP
720
ITEM: NUMBER OF ATOMS
4
ITEM: BOX BOUNDS pp pp pp
-185.6 185.6
-185.6 185.6
-185.6 185.6
ITEM: ATOMS id type xs ys zs
1 2 0.4742 0.50124 0.507804
2 2 0.477528 0.501612 0.507348
3 2 0.480926 0.501992 0.506882
4 2 0.484253 0.502364 0.506425
ITEM: TIMESTEP
740
ITEM: NUMBER OF ATOMS
4
ITEM: BOX BOUNDS pp pp pp
-185.2 185.2
-185.2 185.2
-185.2 185.2
ITEM: ATOMS id type xs ys zs
1 2 0.474189 0.501239 0.507805
2 2 0.477524 0.501612 0.507348
3 2 0.480929 0.501992 0.506881
4 2 0.484264 0.502365 0.506424
ITEM: TIMESTEP
760
ITEM: NUMBER OF ATOMS
4
ITEM: BOX BOUNDS pp pp pp
-184.8 184.8
-184.8 184.8
-184.8 184.8
ITEM: ATOMS id type xs ys zs
1 2 0.474178 0.501237 0.507807
2 2 0.47752 0.501611 0.507349
3 2 0.480933 0.501993 0.506881
4 2 0.484275 0.502366 0.506422
ITEM: TIMESTEP
780
ITEM: NUMBER OF ATOMS
4
ITEM: BOX BOUNDS pp pp pp
-184.4 184.4
-184.4 184.4
-184.4 184.4
ITEM: ATOMS id type xs ys zs
1 2 0.474167 0.501236 0.507808
2 2 0.477516 0.501611 0.507349
3 2 0.480937 0.501993 0.50688
4 2 0.484286 0.502368 0.506421
ITEM: TIMESTEP
800
ITEM: NUMBER OF ATOMS
4
ITEM: BOX BOUNDS pp pp pp
-184 184
-184 184
-184 184
ITEM: ATOMS id type xs ys zs
1 2 0.474155 0.501235 0.50781
2 2 0.477512 0.50161 0.50735
3 2 0.480941 0.501994 0.50688
4 2 0.484298 0.502369 0.506419
ITEM: TIMESTEP
820
ITEM: NUMBER OF ATOMS
4
ITEM: BOX BOUNDS pp pp pp
-183.6 183.6
-183.6 183.6
-183.6 183.6
ITEM: ATOMS id type xs ys zs
1 2 0.474144 0.501234 0.507811
2 2 0.477509 0.50161 0.50735
3 2 0.480945 0.501994 0.506879
4 2 0.484309 0.50237 0.506418
ITEM: TIMESTEP
840
ITEM: NUMBER OF ATOMS
4
ITEM: BOX BOUNDS pp pp pp
-183.2 183.2
-183.2 183.2
-183.2 183.2
ITEM: ATOMS id type xs ys zs
1 2 0.474133 0.501232 0.507813
2 2 0.477505 0.501609 0.507351
3 2 0.480948 0.501994 0.506878
4 2 0.48432 0.502372 0.506416
ITEM: TIMESTEP
860
ITEM: NUMBER OF ATOMS
4
ITEM: BOX BOUNDS pp pp pp
-182.8 182.8
-182.8 182.8
-182.8 182.8
ITEM: ATOMS id type xs ys zs
1 2 0.474121 0.501231 0.507815
2 2 0.477501 0.501609 0.507351
3 2 0.480952 0.501995 0.506878
4 2 0.484332 0.502373 0.506415
ITEM: TIMESTEP
880
ITEM: NUMBER OF ATOMS
4
ITEM: BOX BOUNDS pp pp pp
-182.4 182.4
-182.4 182.4
-182.4 182.4
ITEM: ATOMS id type xs ys zs
1 2 0.47411 0.50123 0.507816
2 2 0.477497 0.501609 0.507352
3 2 0.480956 0.501995 0.506877
4 2 0.484343 0.502374 0.506413
ITEM: TIMESTEP
900
ITEM: NUMBER OF ATOMS
4
ITEM: BOX BOUNDS pp pp pp
-182 182
-182 182
-182 182
ITEM: ATOMS id type xs ys zs
1 2 0.474099 0.501229 0.507818
2 2 0.477493 0.501608 0.507352
3 2 0.48096 0.501996 0.506877
4 2 0.484355 0.502375 0.506411
ITEM: TIMESTEP
920
ITEM: NUMBER OF ATOMS
4
ITEM: BOX BOUNDS pp pp pp
-181.6 181.6
-181.6 181.6
-181.6 181.6
ITEM: ATOMS id type xs ys zs
1 2 0.474087 0.501227 0.507819
2 2 0.477489 0.501608 0.507353
3 2 0.480964 0.501996 0.506876
4 2 0.484366 0.502377 0.50641
ITEM: TIMESTEP
940
ITEM: NUMBER OF ATOMS
4
ITEM: BOX BOUNDS pp pp pp
-181.2 181.2
-181.2 181.2
-181.2 181.2
ITEM: ATOMS id type xs ys zs
1 2 0.474075 0.501226 0.507821
2 2 0.477485 0.501607 0.507353
3 2 0.480968 0.501997 0.506876
4 2 0.484378 0.502378 0.506408
ITEM: TIMESTEP
960
ITEM: NUMBER OF ATOMS
4
ITEM: BOX BOUNDS pp pp pp
-180.8 180.8
-180.8 180.8
-180.8 180.8
ITEM: ATOMS id type xs ys zs
1 2 0.474064 0.501225 0.507823
2 2 0.477481 0.501607 0.507354
3 2 0.480972 0.501997 0.506875
4 2 0.484389 0.502379 0.506407
ITEM: TIMESTEP
980
ITEM: NUMBER OF ATOMS
4
ITEM: BOX BOUNDS pp pp pp
-180.4 180.4
-180.4 180.4
-180.4 180.4
ITEM: ATOMS id type xs ys zs
1 2 0.474052 0.501223 0.507824
2 2 0.477477 0.501606 0.507354
3 2 0.480976 0.501998 0.506875
4 2 0.484401 0.502381 0.506405
ITEM: TIMESTEP
1000
ITEM: NUMBER OF ATOMS
4
ITEM: BOX BOUNDS pp pp pp
-180 180
-180 180
-180 180
ITEM: ATOMS id type xs ys zs
1 2 0.47404 0.501222 0.507826
2 2 0.477473 0.501606 0.507355
3 2 0.48098 0.501998 0.506874
4 2 0.484413 0.502382 0.506403
ITEM: TIMESTEP
1020
ITEM: NUMBER OF ATOMS
4
ITEM: BOX BOUNDS pp pp pp
-179.6 179.6
-179.6 179.6
-179.6 179.6
ITEM: ATOMS id type xs ys zs
1 2 0.474029 0.501221 0.507827
2 2 0.477469 0.501605 0.507356
3 2 0.480984 0.501998 0.506874
4 2 0.484425 0.502383 0.506402
ITEM: TIMESTEP
1040
ITEM: NUMBER OF ATOMS
4
ITEM: BOX BOUNDS pp pp pp
-179.2 179.2
-179.2 179.2
-179.2 179.2
ITEM: ATOMS id type xs ys zs
1 2 0.474017 0.501219 0.507829
2 2 0.477465 0.501605 0.507356
3 2 0.480988 0.501999 0.506873
4 2 0.484436 0.502385 0.5064
ITEM: TIMESTEP
1060
ITEM: NUMBER OF ATOMS
4
ITEM: BOX BOUNDS pp pp pp
-178.8 178.8
-178.8 178.8
-178.8 178.8
ITEM: ATOMS id type xs ys zs
1 2 0.474005 0.501218 0.507831
2 2 0.477461 0.501605 0.507357
3 2 0.480992 0.501999 0.506873
4 2 0.484448 0.502386 0.506399
ITEM: TIMESTEP
1080
ITEM: NUMBER OF ATOMS
4
ITEM: BOX BOUNDS pp pp pp
-178.4 178.4
-178.4 178.4
-178.4 178.4
ITEM: ATOMS id type xs ys zs
1 2 0.473993 0.501217 0.507832
2 2 0.477457 0.501604 0.507357
3 2 0.480996 0.502 0.506872
4 2 0.48446 0.502387 0.506397
ITEM: TIMESTEP
1100
ITEM: NUMBER OF ATOMS
4
ITEM: BOX BOUNDS pp pp pp
-178 178
-178 178
-178 178
ITEM: ATOMS id type xs ys zs
1 2 0.473981 0.501215 0.507834
2 2 0.477453 0.501604 0.507358
3 2 0.481 0.502 0.506871
4 2 0.484472 0.502389 0.506395
ITEM: TIMESTEP
1120
ITEM: NUMBER OF ATOMS
4
ITEM: BOX BOUNDS pp pp pp
-177.6 177.6
-177.6 177.6
-177.6 177.6
ITEM: ATOMS id type xs ys zs
1 2 0.473969 0.501214 0.507836
2 2 0.477449 0.501603 0.507358
3 2 0.481004 0.502001 0.506871
4 2 0.484484 0.50239 0.506394
ITEM: TIMESTEP
1140
ITEM: NUMBER OF ATOMS
4
ITEM: BOX BOUNDS pp pp pp
-177.2 177.2
-177.2 177.2
-177.2 177.2
ITEM: ATOMS id type xs ys zs
1 2 0.473957 0.501213 0.507837
2 2 0.477445 0.501603 0.507359
3 2 0.481008 0.502001 0.50687
4 2 0.484497 0.502391 0.506392
ITEM: TIMESTEP
1160
ITEM: NUMBER OF ATOMS
4
ITEM: BOX BOUNDS pp pp pp
-176.8 176.8
-176.8 176.8
-176.8 176.8
ITEM: ATOMS id type xs ys zs
1 2 0.473944 0.501211 0.507839
2 2 0.477441 0.501602 0.50736
3 2 0.481013 0.502002 0.50687
4 2 0.484509 0.502393 0.50639
ITEM: TIMESTEP
1180
ITEM: NUMBER OF ATOMS
4
ITEM: BOX BOUNDS pp pp pp
-176.4 176.4
-176.4 176.4
-176.4 176.4
ITEM: ATOMS id type xs ys zs
1 2 0.473932 0.50121 0.507841
2 2 0.477436 0.501602 0.50736
3 2 0.481017 0.502002 0.506869
4 2 0.484521 0.502394 0.506389
ITEM: TIMESTEP
1200
ITEM: NUMBER OF ATOMS
4
ITEM: BOX BOUNDS pp pp pp
-176 176
-176 176
-176 176
ITEM: ATOMS id type xs ys zs
1 2 0.47392 0.501209 0.507842
2 2 0.477432 0.501601 0.507361
3 2 0.481021 0.502003 0.506869
4 2 0.484533 0.502395 0.506387
ITEM: TIMESTEP
1220
ITEM: NUMBER OF ATOMS
4
ITEM: BOX BOUNDS pp pp pp
-175.6 175.6
-175.6 175.6
-175.6 175.6
ITEM: ATOMS id type xs ys zs
1 2 0.473908 0.501207 0.507844
2 2 0.477428 0.501601 0.507361
3 2 0.481025 0.502003 0.506868
4 2 0.484546 0.502397 0.506385
ITEM: TIMESTEP
1240
ITEM: NUMBER OF ATOMS
4
ITEM: BOX BOUNDS pp pp pp
-175.2 175.2
-175.2 175.2
-175.2 175.2
ITEM: ATOMS id type xs ys zs
1 2 0.473895 0.501206 0.507846
2 2 0.477424 0.5016 0.507362
3 2 0.481029 0.502004 0.506867
4 2 0.484558 0.502398 0.506384
ITEM: TIMESTEP
1260
ITEM: NUMBER OF ATOMS
4
ITEM: BOX BOUNDS pp pp pp
-174.8 174.8
-174.8 174.8
-174.8 174.8
ITEM: ATOMS id type xs ys zs
1 2 0.473883 0.501204 0.507847
2 2 0.477419 0.5016 0.507362
3 2 0.481034 0.502004 0.506867
4 2 0.48457 0.5024 0.506382
ITEM: TIMESTEP
1280
ITEM: NUMBER OF ATOMS
4
ITEM: BOX BOUNDS pp pp pp
-174.4 174.4
-174.4 174.4
-174.4 174.4
ITEM: ATOMS id type xs ys zs
1 2 0.47387 0.501203 0.507849
2 2 0.477415 0.501599 0.507363
3 2 0.481038 0.502005 0.506866
4 2 0.484583 0.502401 0.50638
ITEM: TIMESTEP
1300
ITEM: NUMBER OF ATOMS
4
ITEM: BOX BOUNDS pp pp pp
-174 174
-174 174
-174 174
ITEM: ATOMS id type xs ys zs
1 2 0.473858 0.501202 0.507851
2 2 0.477411 0.501599 0.507364
3 2 0.481042 0.502005 0.506866
4 2 0.484596 0.502402 0.506378
ITEM: TIMESTEP
1320
ITEM: NUMBER OF ATOMS
4
ITEM: BOX BOUNDS pp pp pp
-173.6 173.6
-173.6 173.6
-173.6 173.6
ITEM: ATOMS id type xs ys zs
1 2 0.473845 0.5012 0.507853
2 2 0.477407 0.501598 0.507364
3 2 0.481047 0.502005 0.506865
4 2 0.484608 0.502404 0.506377
ITEM: TIMESTEP
1340
ITEM: NUMBER OF ATOMS
4
ITEM: BOX BOUNDS pp pp pp
-173.2 173.2
-173.2 173.2
-173.2 173.2
ITEM: ATOMS id type xs ys zs
1 2 0.473832 0.501199 0.507854
2 2 0.477402 0.501598 0.507365
3 2 0.481051 0.502006 0.506864
4 2 0.484621 0.502405 0.506375
ITEM: TIMESTEP
1360
ITEM: NUMBER OF ATOMS
4
ITEM: BOX BOUNDS pp pp pp
-172.8 172.8
-172.8 172.8
-172.8 172.8
ITEM: ATOMS id type xs ys zs
1 2 0.473819 0.501197 0.507856
2 2 0.477398 0.501597 0.507365
3 2 0.481055 0.502006 0.506864
4 2 0.484634 0.502407 0.506373
ITEM: TIMESTEP
1380
ITEM: NUMBER OF ATOMS
4
ITEM: BOX BOUNDS pp pp pp
-172.4 172.4
-172.4 172.4
-172.4 172.4
ITEM: ATOMS id type xs ys zs
1 2 0.473807 0.501196 0.507858
2 2 0.477394 0.501597 0.507366
3 2 0.48106 0.502007 0.506863
4 2 0.484646 0.502408 0.506371
ITEM: TIMESTEP
1400
ITEM: NUMBER OF ATOMS
4
ITEM: BOX BOUNDS pp pp pp
-172 172
-172 172
-172 172
ITEM: ATOMS id type xs ys zs
1 2 0.473794 0.501194 0.50786
2 2 0.477389 0.501596 0.507367
3 2 0.481064 0.502007 0.506863
4 2 0.484659 0.502409 0.50637
ITEM: TIMESTEP
1420
ITEM: NUMBER OF ATOMS
4
ITEM: BOX BOUNDS pp pp pp
-171.6 171.6
-171.6 171.6
-171.6 171.6
ITEM: ATOMS id type xs ys zs
1 2 0.473781 0.501193 0.507861
2 2 0.477385 0.501596 0.507367
3 2 0.481068 0.502008 0.506862
4 2 0.484672 0.502411 0.506368
ITEM: TIMESTEP
1440
ITEM: NUMBER OF ATOMS
4
ITEM: BOX BOUNDS pp pp pp
-171.2 171.2
-171.2 171.2
-171.2 171.2
ITEM: ATOMS id type xs ys zs
1 2 0.473768 0.501192 0.507863
2 2 0.47738 0.501596 0.507368
3 2 0.481073 0.502008 0.506861
4 2 0.484685 0.502412 0.506366
ITEM: TIMESTEP
1460
ITEM: NUMBER OF ATOMS
4
ITEM: BOX BOUNDS pp pp pp
-170.8 170.8
-170.8 170.8
-170.8 170.8
ITEM: ATOMS id type xs ys zs
1 2 0.473755 0.50119 0.507865
2 2 0.477376 0.501595 0.507368
3 2 0.481077 0.502009 0.506861
4 2 0.484698 0.502414 0.506364
ITEM: TIMESTEP
1480
ITEM: NUMBER OF ATOMS
4
ITEM: BOX BOUNDS pp pp pp
-170.4 170.4
-170.4 170.4
-170.4 170.4
ITEM: ATOMS id type xs ys zs
1 2 0.473742 0.501189 0.507867
2 2 0.477371 0.501595 0.507369
3 2 0.481082 0.502009 0.50686
4 2 0.484711 0.502415 0.506363
ITEM: TIMESTEP
1500
ITEM: NUMBER OF ATOMS
4
ITEM: BOX BOUNDS pp pp pp
-170 170
-170 170
-170 170
ITEM: ATOMS id type xs ys zs
1 2 0.473729 0.501187 0.507868
2 2 0.477367 0.501594 0.50737
3 2 0.481086 0.50201 0.50686
4 2 0.484725 0.502417 0.506361
ITEM: TIMESTEP
1520
ITEM: NUMBER OF ATOMS
4
ITEM: BOX BOUNDS pp pp pp
-169.6 169.6
-169.6 169.6
-169.6 169.6
ITEM: ATOMS id type xs ys zs
1 2 0.473715 0.501186 0.50787
2 2 0.477362 0.501593 0.50737
3 2 0.481091 0.50201 0.506859
4 2 0.484738 0.502418 0.506359
ITEM: TIMESTEP
1540
ITEM: NUMBER OF ATOMS
4
ITEM: BOX BOUNDS pp pp pp
-169.2 169.2
-169.2 169.2
-169.2 169.2
ITEM: ATOMS id type xs ys zs
1 2 0.473702 0.501184 0.507872
2 2 0.477358 0.501593 0.507371
3 2 0.481095 0.502011 0.506858
4 2 0.484751 0.50242 0.506357
ITEM: TIMESTEP
1560
ITEM: NUMBER OF ATOMS
4
ITEM: BOX BOUNDS pp pp pp
-168.8 168.8
-168.8 168.8
-168.8 168.8
ITEM: ATOMS id type xs ys zs
1 2 0.473689 0.501183 0.507874
2 2 0.477353 0.501592 0.507371
3 2 0.4811 0.502011 0.506858
4 2 0.484765 0.502421 0.506355
ITEM: TIMESTEP
1580
ITEM: NUMBER OF ATOMS
4
ITEM: BOX BOUNDS pp pp pp
-168.4 168.4
-168.4 168.4
-168.4 168.4
ITEM: ATOMS id type xs ys zs
1 2 0.473675 0.501181 0.507876
2 2 0.477349 0.501592 0.507372
3 2 0.481105 0.502012 0.506857
4 2 0.484778 0.502423 0.506353
ITEM: TIMESTEP
1600
ITEM: NUMBER OF ATOMS
4
ITEM: BOX BOUNDS pp pp pp
-168 168
-168 168
-168 168
ITEM: ATOMS id type xs ys zs
1 2 0.473662 0.50118 0.507878
2 2 0.477344 0.501591 0.507373
3 2 0.481109 0.502012 0.506856
4 2 0.484791 0.502424 0.506352
ITEM: TIMESTEP
1620
ITEM: NUMBER OF ATOMS
4
ITEM: BOX BOUNDS pp pp pp
-167.6 167.6
-167.6 167.6
-167.6 167.6
ITEM: ATOMS id type xs ys zs
1 2 0.473648 0.501178 0.50788
2 2 0.477339 0.501591 0.507373
3 2 0.481114 0.502013 0.506856
4 2 0.484805 0.502426 0.50635
ITEM: TIMESTEP
1640
ITEM: NUMBER OF ATOMS
4
ITEM: BOX BOUNDS pp pp pp
-167.2 167.2
-167.2 167.2
-167.2 167.2
ITEM: ATOMS id type xs ys zs
1 2 0.473634 0.501177 0.507881
2 2 0.477335 0.50159 0.507374
3 2 0.481119 0.502014 0.506855
4 2 0.484819 0.502427 0.506348
ITEM: TIMESTEP
1660
ITEM: NUMBER OF ATOMS
4
ITEM: BOX BOUNDS pp pp pp
-166.8 166.8
-166.8 166.8
-166.8 166.8
ITEM: ATOMS id type xs ys zs
1 2 0.473621 0.501175 0.507883
2 2 0.47733 0.50159 0.507375
3 2 0.481123 0.502014 0.506855
4 2 0.484832 0.502429 0.506346
ITEM: TIMESTEP
1680
ITEM: NUMBER OF ATOMS
4
ITEM: BOX BOUNDS pp pp pp
-166.4 166.4
-166.4 166.4
-166.4 166.4
ITEM: ATOMS id type xs ys zs
1 2 0.473607 0.501174 0.507885
2 2 0.477325 0.501589 0.507375
3 2 0.481128 0.502015 0.506854
4 2 0.484846 0.50243 0.506344
ITEM: TIMESTEP
1700
ITEM: NUMBER OF ATOMS
4
ITEM: BOX BOUNDS pp pp pp
-166 166
-166 166
-166 166
ITEM: ATOMS id type xs ys zs
1 2 0.473593 0.501172 0.507887
2 2 0.47732 0.501589 0.507376
3 2 0.481133 0.502015 0.506853
4 2 0.48486 0.502432 0.506342
ITEM: TIMESTEP
1720
ITEM: NUMBER OF ATOMS
4
ITEM: BOX BOUNDS pp pp pp
-165.6 165.6
-165.6 165.6
-165.6 165.6
ITEM: ATOMS id type xs ys zs
1 2 0.473579 0.50117 0.507889
2 2 0.477316 0.501588 0.507377
3 2 0.481138 0.502016 0.506853
4 2 0.484874 0.502433 0.50634
ITEM: TIMESTEP
1740
ITEM: NUMBER OF ATOMS
4
ITEM: BOX BOUNDS pp pp pp
-165.2 165.2
-165.2 165.2
-165.2 165.2
ITEM: ATOMS id type xs ys zs
1 2 0.473565 0.501169 0.507891
2 2 0.477311 0.501588 0.507377
3 2 0.481142 0.502016 0.506852
4 2 0.484888 0.502435 0.506338
ITEM: TIMESTEP
1760
ITEM: NUMBER OF ATOMS
4
ITEM: BOX BOUNDS pp pp pp
-164.8 164.8
-164.8 164.8
-164.8 164.8
ITEM: ATOMS id type xs ys zs
1 2 0.473551 0.501167 0.507893
2 2 0.477306 0.501587 0.507378
3 2 0.481147 0.502017 0.506851
4 2 0.484902 0.502437 0.506336
ITEM: TIMESTEP
1780
ITEM: NUMBER OF ATOMS
4
ITEM: BOX BOUNDS pp pp pp
-164.4 164.4
-164.4 164.4
-164.4 164.4
ITEM: ATOMS id type xs ys zs
1 2 0.473537 0.501166 0.507895
2 2 0.477301 0.501587 0.507379
3 2 0.481152 0.502017 0.506851
4 2 0.484916 0.502438 0.506334
ITEM: TIMESTEP
1800
ITEM: NUMBER OF ATOMS
4
ITEM: BOX BOUNDS pp pp pp
-164 164
-164 164
-164 164
ITEM: ATOMS id type xs ys zs
1 2 0.473523 0.501164 0.507897
2 2 0.477296 0.501586 0.507379
3 2 0.481157 0.502018 0.50685
4 2 0.48493 0.50244 0.506333
ITEM: TIMESTEP
1820
ITEM: NUMBER OF ATOMS
4
ITEM: BOX BOUNDS pp pp pp
-163.6 163.6
-163.6 163.6
-163.6 163.6
ITEM: ATOMS id type xs ys zs
1 2 0.473509 0.501163 0.507899
2 2 0.477291 0.501586 0.50738
3 2 0.481162 0.502018 0.506849
4 2 0.484944 0.502441 0.506331
ITEM: TIMESTEP
1840
ITEM: NUMBER OF ATOMS
4
ITEM: BOX BOUNDS pp pp pp
-163.2 163.2
-163.2 163.2
-163.2 163.2
ITEM: ATOMS id type xs ys zs
1 2 0.473494 0.501161 0.507901
2 2 0.477287 0.501585 0.507381
3 2 0.481167 0.502019 0.506849
4 2 0.484959 0.502443 0.506329
ITEM: TIMESTEP
1860
ITEM: NUMBER OF ATOMS
4
ITEM: BOX BOUNDS pp pp pp
-162.8 162.8
-162.8 162.8
-162.8 162.8
ITEM: ATOMS id type xs ys zs
1 2 0.47348 0.501159 0.507903
2 2 0.477282 0.501584 0.507381
3 2 0.481172 0.502019 0.506848
4 2 0.484973 0.502445 0.506327
ITEM: TIMESTEP
1880
ITEM: NUMBER OF ATOMS
4
ITEM: BOX BOUNDS pp pp pp
-162.4 162.4
-162.4 162.4
-162.4 162.4
ITEM: ATOMS id type xs ys zs
1 2 0.473466 0.501158 0.507905
2 2 0.477277 0.501584 0.507382
3 2 0.481177 0.50202 0.506847
4 2 0.484988 0.502446 0.506325
ITEM: TIMESTEP
1900
ITEM: NUMBER OF ATOMS
4
ITEM: BOX BOUNDS pp pp pp
-162 162
-162 162
-162 162
ITEM: ATOMS id type xs ys zs
1 2 0.473451 0.501156 0.507907
2 2 0.477272 0.501583 0.507383
3 2 0.481182 0.502021 0.506847
4 2 0.485002 0.502448 0.506323
ITEM: TIMESTEP
1920
ITEM: NUMBER OF ATOMS
4
ITEM: BOX BOUNDS pp pp pp
-161.6 161.6
-161.6 161.6
-161.6 161.6
ITEM: ATOMS id type xs ys zs
1 2 0.473436 0.501155 0.507909
2 2 0.477267 0.501583 0.507383
3 2 0.481187 0.502021 0.506846
4 2 0.485017 0.502449 0.506321
ITEM: TIMESTEP
1940
ITEM: NUMBER OF ATOMS
4
ITEM: BOX BOUNDS pp pp pp
-161.2 161.2
-161.2 161.2
-161.2 161.2
ITEM: ATOMS id type xs ys zs
1 2 0.473422 0.501153 0.507911
2 2 0.477262 0.501582 0.507384
3 2 0.481192 0.502022 0.506845
4 2 0.485031 0.502451 0.506319
ITEM: TIMESTEP
1960
ITEM: NUMBER OF ATOMS
4
ITEM: BOX BOUNDS pp pp pp
-160.8 160.8
-160.8 160.8
-160.8 160.8
ITEM: ATOMS id type xs ys zs
1 2 0.473407 0.501151 0.507913
2 2 0.477256 0.501582 0.507385
3 2 0.481197 0.502022 0.506844
4 2 0.485046 0.502453 0.506317
ITEM: TIMESTEP
1980
ITEM: NUMBER OF ATOMS
4
ITEM: BOX BOUNDS pp pp pp
-160.4 160.4
-160.4 160.4
-160.4 160.4
ITEM: ATOMS id type xs ys zs
1 2 0.473392 0.50115 0.507915
2 2 0.477251 0.501581 0.507385
3 2 0.481202 0.502023 0.506844
4 2 0.485061 0.502454 0.506315
ITEM: TIMESTEP
2000
ITEM: NUMBER OF ATOMS
4
ITEM: BOX BOUNDS pp pp pp
-160 160
-160 160
-160 160
ITEM: ATOMS id type xs ys zs
1 2 0.473377 0.501148 0.507917
2 2 0.477246 0.501581 0.507386
3 2 0.481207 0.502023 0.506843
4 2 0.485076 0.502456 0.506313
ITEM: TIMESTEP
2020
ITEM: NUMBER OF ATOMS
4
ITEM: BOX BOUNDS pp pp pp
-159.6 159.6
-159.6 159.6
-159.6 159.6
ITEM: ATOMS id type xs ys zs
1 2 0.473362 0.501146 0.507919
2 2 0.477241 0.50158 0.507387
3 2 0.481212 0.502024 0.506842
4 2 0.485091 0.502458 0.506311
ITEM: TIMESTEP
2040
ITEM: NUMBER OF ATOMS
4
ITEM: BOX BOUNDS pp pp pp
-159.2 159.2
-159.2 159.2
-159.2 159.2
ITEM: ATOMS id type xs ys zs
1 2 0.473347 0.501145 0.507921
2 2 0.477236 0.501579 0.507388
3 2 0.481217 0.502025 0.506842
4 2 0.485106 0.502459 0.506308
ITEM: TIMESTEP
2060
ITEM: NUMBER OF ATOMS
4
ITEM: BOX BOUNDS pp pp pp
-158.8 158.8
-158.8 158.8
-158.8 158.8
ITEM: ATOMS id type xs ys zs
1 2 0.473332 0.501143 0.507923
2 2 0.477231 0.501579 0.507388
3 2 0.481223 0.502025 0.506841
4 2 0.485121 0.502461 0.506306
ITEM: TIMESTEP
2080
ITEM: NUMBER OF ATOMS
4
ITEM: BOX BOUNDS pp pp pp
-158.4 158.4
-158.4 158.4
-158.4 158.4
ITEM: ATOMS id type xs ys zs
1 2 0.473317 0.501141 0.507925
2 2 0.477225 0.501578 0.507389
3 2 0.481228 0.502026 0.50684
4 2 0.485136 0.502463 0.506304
ITEM: TIMESTEP
2100
ITEM: NUMBER OF ATOMS
4
ITEM: BOX BOUNDS pp pp pp
-158 158
-158 158
-158 158
ITEM: ATOMS id type xs ys zs
1 2 0.473302 0.501139 0.507927
2 2 0.47722 0.501578 0.50739
3 2 0.481233 0.502026 0.506839
4 2 0.485151 0.502464 0.506302
ITEM: TIMESTEP
2120
ITEM: NUMBER OF ATOMS
4
ITEM: BOX BOUNDS pp pp pp
-157.6 157.6
-157.6 157.6
-157.6 157.6
ITEM: ATOMS id type xs ys zs
1 2 0.473286 0.501138 0.507929
2 2 0.477215 0.501577 0.50739
3 2 0.481238 0.502027 0.506839
4 2 0.485167 0.502466 0.5063
ITEM: TIMESTEP
2140
ITEM: NUMBER OF ATOMS
4
ITEM: BOX BOUNDS pp pp pp
-157.2 157.2
-157.2 157.2
-157.2 157.2
ITEM: ATOMS id type xs ys zs
1 2 0.473271 0.501136 0.507931
2 2 0.477209 0.501576 0.507391
3 2 0.481244 0.502028 0.506838
4 2 0.485182 0.502468 0.506298
ITEM: TIMESTEP
2160
ITEM: NUMBER OF ATOMS
4
ITEM: BOX BOUNDS pp pp pp
-156.8 156.8
-156.8 156.8
-156.8 156.8
ITEM: ATOMS id type xs ys zs
1 2 0.473255 0.501134 0.507933
2 2 0.477204 0.501576 0.507392
3 2 0.481249 0.502028 0.506837
4 2 0.485198 0.50247 0.506296
ITEM: TIMESTEP
2180
ITEM: NUMBER OF ATOMS
4
ITEM: BOX BOUNDS pp pp pp
-156.4 156.4
-156.4 156.4
-156.4 156.4
ITEM: ATOMS id type xs ys zs
1 2 0.47324 0.501133 0.507935
2 2 0.477199 0.501575 0.507393
3 2 0.481254 0.502029 0.506837
4 2 0.485213 0.502471 0.506294
ITEM: TIMESTEP
2200
ITEM: NUMBER OF ATOMS
4
ITEM: BOX BOUNDS pp pp pp
-156 156
-156 156
-156 156
ITEM: ATOMS id type xs ys zs
1 2 0.473224 0.501131 0.507938