LAMMPS (28 Jul 2015)
WARNING: OMP_NUM_THREADS environment is not set. (../comm.cpp:89)
  using 1 OpenMP thread(s) per MPI task
# REAX potential for CHO system
# .....


#------------- initialization --------------------
units		real
atom_style	charge

#print '${mesh}'

read_data	./resu.CHO
  orthogonal box = (0 0 0) to (100 100 100)
  1 by 1 by 1 MPI processor grid
  reading atoms ...
  400 atoms
  reading velocities ...
  400 velocities

#------------- force-field --------------------
#pair_style	reax/c lmp_control
#pair_coeff	* * ./ffield.reax.2005.cho H C O
#fix             chargeeq all qeq/reax 1 0.0 10.0 1e-8 param.qeq

pair_style	reax/c lmp_control
pair_coeff	* * ./ffield.reax.2008.cho H C O
fix             2 all qeq/reax 1 0.0 10.0 1e-6 param.qeq

#neighbor	2 bin
#neigh_modify	every 10 delay 0 check no
#neigh_modify    every 2 delay 10 check yes page 100000

#------------- settings -----------------------
compute  reax    all pair reax/c
compute  peratom all pe/atom pair
compute	 pe2     all reduce sum c_peratom
compute  2       all cluster/atom 1.5

timestep	0.1

thermo_style custom step time temp etotal pe c_reax[1]

fix	         1 all nvt temp 300.0 3000.0 10.0
#fix	         1 all nve
#fix              4 all temp/berendsen 300 3000 500
#fix              momentum all momentum 2000 linear 1 1 1 angular

fix              5 all reax/c/species 2 10 5000 species.out
WARNING: Resetting reneighboring criteria for fix reax/c/species (../fix_reaxc_species.cpp:101)
fix              6 all reax/c/bonds 5000 bonds.reaxc


#-------minimize
min_style       sd
minimize        1.0e-4 1.0e-6 100 1000
WARNING: Resetting reneighboring criteria during minimization (../min.cpp:168)
Neighbor list info ...
  3 neighbor list requests
  update every 1 steps, delay 0 steps, check yes
  master list distance cutoff = 12
  ghost atom cutoff = 12
Memory usage per processor = 23.2723 Mbytes
Step Time Temp TotEng PotEng reax[1] 
       0            0          300    328.54476   -28.258206   -23.006952 
      37          3.7          300   -293.12361   -649.92657   -702.43306 
Loop time of 0.112873 on 1 procs (1 MPI x 1 OpenMP) for 37 steps with 400 atoms

Minimization stats:
  Stopping criterion = energy tolerance
  Energy initial, next-to-last, final = 
        -28.2582058493     -649.926433431     -649.926571667
  Force two-norm initial, final = 135.365 19.9518
  Force max component initial, final = 63.5763 7.2406
  Final line search alpha, max atom move = 0.00010429 0.000755125
  Iterations, force evaluations = 37 225

Pair  time (%) = 0.0768714 (68.1043)
Neigh time (%) = 0 (0)
Comm  time (%) = 0.00100613 (0.891379)
Outpt time (%) = 0 (0)
Other time (%) = 0.0349956 (31.0043)

Nlocal:    400 ave 400 max 400 min
Histogram: 1 0 0 0 0 0 0 0 0 0
Nghost:    366 ave 366 max 366 min
Histogram: 1 0 0 0 0 0 0 0 0 0
Neighs:    623 ave 623 max 623 min
Histogram: 1 0 0 0 0 0 0 0 0 0
FullNghs:  0 ave 0 max 0 min
Histogram: 1 0 0 0 0 0 0 0 0 0

Total # of neighbors = 623
Ave neighs/atom = 1.5575
Neighbor list builds = 0
Dangerous builds = 0
reset_timestep  0

#-------run
thermo 5000

#restart ${iter} ../${repd}.restart

dump 		1 all cfg  5000 dump/dump_*.cfg mass type xs ys zs mass q c_2 c_peratom
dump		2 all atom 5000 dump.file
run		500000
Neighbor list info ...
  3 neighbor list requests
  update every 20 steps, delay 0 steps, check no
  master list distance cutoff = 12
  ghost atom cutoff = 12
Memory usage per processor = 29.4947 Mbytes
Step Time Temp TotEng PotEng reax[1] 
       0            0          300   -293.12361   -649.92657   -702.43306 
    5000          500    343.44739   -446.04629   -854.52311   -900.31818 
   10000         1000    337.19236   -533.26794   -934.30538   -1000.4057 
   15000         1500    380.19585   -515.91684    -968.1002   -1181.6745 
   20000         2000    419.89037   -858.55948   -1357.9532   -1723.5876 
   25000         2500    421.72453   -1119.6624   -1621.2376   -2130.0214 
   30000         3000    424.82009   -1111.6122   -1616.8691   -2194.0395 
   35000         3500    498.41299   -1046.9926   -1639.7767   -2292.2449 
   40000         4000    543.07257    -1383.425   -2029.3247   -2592.5154 
   45000         4500    598.16801   -1381.4614   -2092.8885   -2328.4136 
   50000         5000    596.04042   -1295.1241   -2004.0207    -2551.636 
   55000         5500    484.89983   -1701.9514   -2278.6638   -2904.2528 
   60000         6000     551.8558    -1618.105   -2274.4509   -2687.4299 
   65000         6500    615.31891   -1632.8483   -2364.6737   -2981.1606 
   70000         7000    732.42458   -1702.0051   -2573.1093   -3223.1828 
   75000         7500    713.39783   -1637.4396   -2485.9145   -3149.1744 
   80000         8000    810.71339   -1775.8254   -2740.0418   -3391.6243 
   85000         8500    787.16159   -1798.1518   -2734.3571   -3515.1115 
   90000         9000    695.33694    -1992.729   -2819.7232   -4232.1281 
   95000         9500    769.04081   -1950.5154   -2865.1689   -4040.8676 
  100000        10000    757.17718   -1995.7715    -2896.315   -4295.1121 
  105000        10500    917.83089   -2060.5191   -3152.1351   -4921.2068 
  110000        11000    933.30921   -2096.4687   -3206.4936   -4337.9207 
  115000        11500    969.44384   -2307.0299   -3460.0314   -4916.0312 
  120000        12000    777.85456   -2328.8145   -3253.9505   -5243.4181 
  125000        12500    921.24938   -2384.3557   -3480.0374   -5328.2559 
  130000        13000    998.76904   -2749.2259   -3937.1051   -6635.3828 
  135000        13500    1109.7933   -2824.9895   -4144.9147   -5532.3762 
  140000        14000     897.6524   -3111.1433   -4178.7601   -5823.3506 
  145000        14500     1044.796   -3224.8073   -4467.4283   -6541.7385 
  150000        15000    1041.1637   -3125.0181    -4363.319   -6496.1768 
  155000        15500    1111.3919   -3786.9616    -5108.788    -7395.695 
  160000        16000      1058.35   -3706.4858   -4965.2273   -7819.4552 
  165000        16500    1229.2788   -3935.1338   -5397.1682    -8200.367 
  170000        17000    1247.8361   -4024.4277    -5508.533   -8037.5628 
  175000        17500    1111.8446   -4093.2457   -5415.6105   -8421.9707 
  180000        18000    1131.3367   -4072.3658   -5417.9134   -7582.7059 
  185000        18500    1229.8735   -4065.0613   -5527.8031   -8007.9258 
  190000        19000    1280.6229   -3869.5889   -5392.6891   -8062.3935 
  195000        19500     1220.336    -4031.096   -5482.4943   -7664.5694 
  200000        20000    1295.8909   -4110.6964   -5651.9555   -8168.7484 
  205000        20500    1499.5774   -4127.6953   -5911.2074   -8937.5839 
  210000        21000    1578.9004   -4150.4548   -6028.3093   -8469.7005 
  215000        21500    1601.5903   -4468.9655   -6373.8061   -9013.5515 
  220000        22000    1557.3415   -4642.1598   -6494.3733   -8787.4287 
  225000        22500    1590.7268   -4637.9346   -6529.8547   -9743.7982 
  230000        23000    1534.9042    -4775.263   -6600.7908   -9708.7129 
  235000        23500    1678.9536   -5246.2559   -7243.1079    -11074.56 
  240000        24000     1606.505   -5263.0437   -7173.7294   -10526.445 
  245000        24500    1514.6359   -5712.2797   -7513.7016   -11175.751 
  250000        25000    1621.9383   -5647.0634   -7576.1047   -10193.515 
  255000        25500    1444.3363   -5837.4946   -7555.3062   -10138.871 
  260000        26000    1751.8842   -5831.0099   -7914.6015   -10613.485 
  265000        26500    1897.5813   -6063.9018   -8320.7772   -11549.573 
  270000        27000    1927.2231   -6214.6873   -8506.8169   -12283.081 
  275000        27500    1935.2212   -6044.7555   -8346.3977   -11676.249 
  280000        28000    1841.9782   -6558.6186    -8749.363   -12062.019 
  285000        28500    1910.9952   -6433.0116   -8705.8407   -11935.182 
  290000        29000    1841.4674   -6414.3852    -8604.522   -11521.904 
  295000        29500     1998.659   -6297.5317   -8674.6232   -11199.847 
  300000        30000    2033.8029   -6282.6328   -8701.5225   -11465.592 
  305000        30500    1895.8691   -6616.6419    -8871.481   -12555.039 
  310000        31000    1947.9209   -6841.9363   -9158.6829   -12414.279 
  315000        31500    2028.4418   -6615.1102   -9027.6237   -12431.143 
  320000        32000    1830.0881   -6990.3476   -9166.9505   -11732.432 
  325000        32500    2000.8247    -7523.163   -9902.8304   -12715.264 
  330000        33000    2022.4306   -7668.0173   -10073.381   -12956.487 
  335000        33500    1966.4645   -7880.8068   -10219.608   -13486.112 
  340000        34000      2293.01   -7807.7515   -10534.927   -13276.728 
  345000        34500    2070.7454   -8339.0256   -10801.853   -14976.619 
  350000        35000    2527.3633   -8510.0762   -11515.979   -15712.281 
  355000        35500    2540.4834   -8395.3824   -11416.889   -15300.499 
  360000        36000    1841.0512   -8926.8747   -11116.516   -15606.596 
  365000        36500    2069.3111   -9217.1475   -11678.269   -16855.844 
  370000        37000    2671.4678   -9056.4288   -12233.721   -17510.546 
  375000        37500    2278.6303   -9392.5054   -12102.579    -17753.74 
  380000        38000    2370.2889   -9598.4293   -12417.516   -18482.519 
  385000        38500    2311.3298   -9468.0093   -12216.974   -17276.313 
  390000        39000     2154.813   -9550.6415   -12113.454   -17399.887 
  395000        39500    2319.5634   -9546.3564   -12305.113   -17246.026 
  400000        40000    2657.0675   -9749.6508   -12909.816   -18875.365 
  405000        40500    2435.1248   -9760.1661   -12656.365   -17746.131 
  410000        41000    2433.0513   -10197.473   -13091.206   -18284.798 
  415000        41500    2293.3096   -10543.124   -13270.656   -19473.534 
  420000        42000    2335.6678   -10025.356   -12803.267    -18256.16 
  425000        42500    2462.1773   -10466.538   -13394.912   -18530.837 
  430000        43000    2760.8032   -11113.817   -14397.359   -20841.434 
  435000        43500    2811.0731   -10919.401   -14262.732   -19362.488 
  440000        44000    2689.7293   -11288.569    -14487.58   -19657.284 
  445000        44500    2609.2039   -11580.821    -14684.06   -20699.092 
  450000        45000    2637.1972   -11622.214   -14758.747     -20357.9 
  455000        45500    2521.9268   -12267.331   -15266.767   -21500.819 
  460000        46000    2775.2491   -12181.256   -15481.979   -21946.298 
  465000        46500    3104.9642   -12411.423   -16104.292   -22596.956 
  470000        47000    2534.9302   -13150.581   -16165.483   -24205.529 
  475000        47500    3258.6628   -12953.899   -16829.568   -23821.459 
  480000        48000    2993.1491   -13553.063   -17112.945   -23621.999 
  485000        48500    3099.9054   -13569.108    -17255.96   -23221.812 
  490000        49000    3194.8811   -13790.837   -17590.647   -25398.137 
  495000        49500    3205.3084   -13407.573   -17219.785   -25032.902 
  500000        50000    2995.2357   -13458.679   -17021.042   -24379.695 
Loop time of 393.15 on 1 procs (1 MPI x 1 OpenMP) for 500000 steps with 400 atoms

Pair  time (%) = 301.297 (76.6366)
Neigh time (%) = 13.5389 (3.44369)
Comm  time (%) = 2.59719 (0.66061)
Outpt time (%) = 0.242558 (0.061696)
Other time (%) = 75.4744 (19.1974)

Nlocal:    400 ave 400 max 400 min
Histogram: 1 0 0 0 0 0 0 0 0 0
Nghost:    382 ave 382 max 382 min
Histogram: 1 0 0 0 0 0 0 0 0 0
Neighs:    719 ave 719 max 719 min
Histogram: 1 0 0 0 0 0 0 0 0 0
FullNghs:  1308 ave 1308 max 1308 min
Histogram: 1 0 0 0 0 0 0 0 0 0

Total # of neighbors = 1308
Ave neighs/atom = 3.27
Neighbor list builds = 25000
Dangerous builds = 0

#unfix 4
#fix              4 all temp/berendsen 3000 3000 500
#run		1000000




Please see the log.cite file for references relevant to this simulation

