LAMMPS data file via write_data, version 28 Jul 2015, timestep = 500000

400 atoms
3 atom types

0.0000000000000000e+00 1.0000000000000000e+02 xlo xhi
0.0000000000000000e+00 1.0000000000000000e+02 ylo yhi
0.0000000000000000e+00 1.0000000000000000e+02 zlo zhi

Masses

1 1.008
2 12.0107
3 15.9994

Atoms # charge

137 2 0.0000000000000000e+00 3.5915705161104569e+01 2.1867784742836452e+01 8.0588146344705702e-01 0 0 0
378 2 0.0000000000000000e+00 5.8663071027583982e+01 2.5733422278385397e+01 1.1907455998716321e+00 0 0 0
395 2 0.0000000000000000e+00 5.2027650318997573e+01 2.8250157641403447e+01 1.5529720768341413e+00 0 0 0
283 2 0.0000000000000000e+00 1.7543346642148858e+01 3.4443896980869582e+01 1.7298970984115709e+00 0 0 0
27 2 0.0000000000000000e+00 5.0260681448057518e+01 3.7243795282266611e+01 1.4257454882953438e+00 0 0 0
147 2 0.0000000000000000e+00 8.6506784712232800e+01 4.5040571209955914e+01 9.6486970392492455e-01 0 0 0
98 2 0.0000000000000000e+00 8.6212042465453237e+01 7.5281092126699676e+01 1.0250401092198997e+00 0 0 0
371 2 0.0000000000000000e+00 8.8953341476532671e+01 8.0560695401229509e+01 7.8764746326467183e-01 0 0 0
286 2 0.0000000000000000e+00 3.6848354415256104e+01 9.3652365360393901e+01 3.3798368153723624e-01 0 0 0
20 2 0.0000000000000000e+00 6.5165923260303646e+00 1.8927897120498873e+01 3.0948076402113043e+00 0 0 0
332 2 0.0000000000000000e+00 9.9770918142236567e+01 2.8962950739894985e+01 3.2369761742010956e+00 0 0 0
37 2 0.0000000000000000e+00 4.0221793350813311e+00 3.6230718477640522e+01 2.6811530736365907e+00 0 0 0
75 2 0.0000000000000000e+00 8.0281473565688103e+01 8.5963231840801086e+01 2.1149706448046888e+00 -1 2 1
334 2 0.0000000000000000e+00 1.7913632385440394e+00 5.6431561087031659e+00 4.3376034344918644e+00 0 0 0
129 2 0.0000000000000000e+00 6.0793579144386483e+00 1.7055883088255971e+01 4.4332109128309174e+00 0 0 0
52 2 0.0000000000000000e+00 2.3217834773366658e+01 2.8643001476917970e+01 5.3443810276538670e+00 0 0 0
292 2 0.0000000000000000e+00 3.2461347791720563e+01 2.9865738665540206e+01 5.2913649460971452e+00 0 0 0
50 2 0.0000000000000000e+00 1.2525750175562438e+01 5.1309750223257687e+01 4.6667456763989819e+00 0 0 0
277 2 0.0000000000000000e+00 7.7927953965453554e+01 5.1438284722114282e+01 4.6554275639778853e+00 0 0 0
165 2 0.0000000000000000e+00 1.0241125887822960e+01 7.8533871398120709e+01 4.2659664720660260e+00 0 -1 0
247 2 0.0000000000000000e+00 5.9748627426894018e+01 8.2575109183035025e+01 5.3877968148184605e+00 0 -1 -1
172 2 0.0000000000000000e+00 3.4892724033780361e+01 9.5925653581219692e+01 5.3526463918474994e+00 1 2 -1
76 2 0.0000000000000000e+00 9.6614225972500321e+01 9.8530803128714382e+01 5.1027715169240233e+00 0 0 0
61 2 0.0000000000000000e+00 8.5715165200853065e+01 1.7696999806385438e+01 6.2401224895393801e+00 0 0 0
170 2 0.0000000000000000e+00 4.4382483561352508e+00 2.7397567049265280e+01 6.1505031805102517e+00 0 0 0
94 2 0.0000000000000000e+00 8.2480006290287164e+01 4.4171304213168952e+01 6.2739722514144312e+00 0 0 0
243 2 0.0000000000000000e+00 9.7743911766039986e+01 4.9032437470524115e+01 7.6796471670142736e+00 0 0 0
158 2 0.0000000000000000e+00 3.1965285985273017e+01 5.3971233971019466e+01 6.9195408038692117e+00 0 0 0
4 2 0.0000000000000000e+00 4.4052197674616295e+01 6.3691824841098239e+01 7.4074635646909890e+00 0 0 0
40 2 0.0000000000000000e+00 9.5442035997206474e+01 7.5486904250928282e+00 8.3437449638008854e+00 0 0 0
100 2 0.0000000000000000e+00 6.7794306334142419e+01 2.6859954384394442e+01 9.8247927253607497e+00 0 0 0
343 2 0.0000000000000000e+00 7.4500683453549811e+01 4.0092990527953539e+01 8.7847081095047930e+00 0 0 0
55 2 0.0000000000000000e+00 1.7689132387269311e+01 4.7200173850853560e+01 8.6801466381464287e+00 0 0 0
362 2 0.0000000000000000e+00 5.8616399697133325e+01 5.2181974938798930e+01 8.2255502586434677e+00 0 0 0
329 2 0.0000000000000000e+00 7.2577511045640875e+01 7.6235167058706054e+01 8.2640389326069226e+00 0 -1 0
370 2 0.0000000000000000e+00 9.7034066535284353e+01 9.0811595863691394e+01 9.3950820511543345e+00 0 0 0
115 2 0.0000000000000000e+00 5.1744936426349376e+01 7.3410000714071657e+00 1.1373518838996137e+01 0 0 0
146 2 0.0000000000000000e+00 6.0843329750530422e+01 1.1180314316397276e+01 1.1040089523704111e+01 0 0 0
202 2 0.0000000000000000e+00 7.8720660393522323e+01 1.0254067110648386e+01 1.0094426312162257e+01 0 0 0
112 2 0.0000000000000000e+00 2.8105649731538762e+01 2.3718214224442601e+01 1.0309626295624607e+01 0 0 0
333 2 0.0000000000000000e+00 2.5627181471614588e+01 5.1200297324762055e+01 1.1578451229739713e+01 0 0 0
365 2 0.0000000000000000e+00 5.0902776832301285e+01 5.0911304425722207e+01 1.1394869668691037e+01 1 1 0
344 2 0.0000000000000000e+00 1.2073441392618815e+01 5.5270399371964650e+01 1.1032388387133812e+01 0 0 0
175 2 0.0000000000000000e+00 1.3442456992196602e+01 6.0704878313845761e+01 1.1235641181680601e+01 0 0 0
287 2 0.0000000000000000e+00 9.2053258560009255e+01 6.9800726730279607e+01 1.0475924331482750e+01 0 0 0
57 2 0.0000000000000000e+00 6.1994204522431196e-01 7.5629379117122099e+01 1.0899007263004380e+01 1 0 2
218 2 0.0000000000000000e+00 7.6111173827009068e+01 9.2307944370593134e+01 1.1932636816545983e+01 0 0 0
318 2 0.0000000000000000e+00 3.7761402142347215e+01 9.6881748444977958e+01 6.9060481530346749e+00 -1 -2 2
151 2 0.0000000000000000e+00 2.7692858109730960e+01 1.6696639354320801e+01 1.3953299594674322e+01 0 0 0
393 2 0.0000000000000000e+00 8.7402464721504160e+01 1.8434826836225124e+01 1.2204449887071011e+01 0 0 0
310 2 0.0000000000000000e+00 7.9177005681414414e+01 2.3835048275736124e+01 1.2716478008976637e+01 0 0 0
345 2 0.0000000000000000e+00 3.6596040117604595e+01 2.4945086081024503e+01 1.3610990621903861e+01 0 0 0
361 2 0.0000000000000000e+00 7.2696484875653184e+01 3.2218413864296416e+01 1.2281785437105977e+01 0 0 0
351 2 0.0000000000000000e+00 1.1045124585421786e+00 4.5030851111704273e+01 1.3988642453654064e+01 0 -2 0
313 2 0.0000000000000000e+00 9.1055383171261170e+01 4.4798799431839164e+01 1.2234073827760858e+01 0 0 0
169 2 0.0000000000000000e+00 2.0138419060983530e+01 7.5246657723825592e+01 1.3715610536805498e+01 0 0 0
228 2 0.0000000000000000e+00 9.0467120375428536e+01 7.7391719162037177e+01 1.3468813180217824e+01 0 0 0
179 2 0.0000000000000000e+00 8.5639176592122823e+01 9.7723346579827520e+01 1.3059765186363952e+01 -1 -3 -1
7 2 0.0000000000000000e+00 9.6805215103853044e+01 7.7389702044128956e+00 1.5068408615791107e+01 0 0 0
86 2 0.0000000000000000e+00 5.5267577507716631e+01 6.7884631360626571e+01 1.4477683774527721e+01 0 1 1
271 2 0.0000000000000000e+00 2.3055341657801396e+01 5.1034447090358128e+00 1.6453743000320255e+01 0 0 1
73 2 0.0000000000000000e+00 6.7957915621649761e+01 4.9868785538140186e+00 1.6550837277835139e+01 0 0 0
5 2 0.0000000000000000e+00 6.5979705713709095e+01 1.3891070199154971e+01 1.6591548663323703e+01 0 0 0
23 2 0.0000000000000000e+00 1.2439438481535710e+01 5.2733265494287892e+01 1.7688111430684554e+01 0 0 0
366 2 0.0000000000000000e+00 3.0563426840070798e+00 7.4974265695152383e+01 1.6286361356878356e+01 0 0 0
140 2 0.0000000000000000e+00 7.7913574004035624e+01 9.7196993060158576e+01 1.6331849918384815e+01 0 0 0
352 2 0.0000000000000000e+00 5.5377441709295198e+01 1.7740544853415326e+01 1.9524467933494368e+01 0 0 0
245 2 0.0000000000000000e+00 3.2381819187144806e+01 4.7976786123351062e+01 1.8428737770284773e+01 0 0 0
399 2 0.0000000000000000e+00 7.6544916262870046e+01 5.3085120155895275e+01 1.9109426082034954e+01 0 0 0
10 2 0.0000000000000000e+00 2.1835640795794269e+01 6.2287213025202931e+01 1.8339788641237508e+01 0 0 0
155 2 0.0000000000000000e+00 6.3240712608290963e+01 7.7104389418005070e+01 1.9600761337412663e+01 0 0 0
34 2 0.0000000000000000e+00 9.5648897457577576e+01 3.9431393069343272e+01 2.1540672556725635e+01 0 0 0
48 2 0.0000000000000000e+00 9.5276531493694264e+01 5.8358362928108001e+01 2.0643192116290233e+01 0 0 0
173 2 0.0000000000000000e+00 6.3477345393406068e+01 7.1581409964115224e+01 2.0096185584975188e+01 -1 0 0
274 2 0.0000000000000000e+00 1.1680796136837712e+01 7.7597838364163309e+01 2.1946832241226193e+01 0 0 0
182 2 0.0000000000000000e+00 2.0767620252749399e+01 8.1632459736824174e+01 2.0706044572008171e+01 0 0 0
93 2 0.0000000000000000e+00 7.5231754378259808e+01 8.6747754154346268e+01 2.0883920101561003e+01 0 0 0
3 2 0.0000000000000000e+00 9.4121190770631955e+01 9.1994368319247627e+01 2.1193107342219463e+01 0 0 0
261 2 0.0000000000000000e+00 3.5570647862139606e+00 7.6919245844398771e+00 2.3623255042611149e+01 0 0 0
259 2 0.0000000000000000e+00 5.7001930140708417e+01 8.7203761963644055e+00 2.3219529686923522e+01 0 0 0
176 2 0.0000000000000000e+00 7.0060944155434015e+01 5.9206012453537209e+00 2.2930295528693986e+01 0 0 1
96 2 0.0000000000000000e+00 1.1067801071289836e+01 1.7941766459253962e+01 2.2292840152276270e+01 0 0 0
32 2 0.0000000000000000e+00 1.1944741340722118e+00 2.6131832119574895e+01 2.2025017680867066e+01 1 -1 1
367 2 0.0000000000000000e+00 9.5348534226322087e+01 6.4224447275295432e+01 2.2187746792832680e+01 0 0 0
338 2 0.0000000000000000e+00 3.4756512467943573e-01 8.6509478840314614e+01 2.2692507417308668e+01 0 0 0
230 2 0.0000000000000000e+00 7.8193150017628412e+01 9.5113805648826656e+01 2.2049902598285183e+01 0 0 0
328 2 0.0000000000000000e+00 6.8660697520759882e+01 9.7020567364256550e+01 2.3181501326842454e+01 0 0 0
267 2 0.0000000000000000e+00 3.8800237007709143e+01 9.8311845252878399e+01 2.2568944689047193e+01 0 0 0
68 2 0.0000000000000000e+00 6.1588440953352432e+01 3.4752866023771194e+00 2.4087063465969436e+01 0 0 0
240 2 0.0000000000000000e+00 6.5283019641867369e+01 2.9250095313530990e+00 2.5584855553997084e+01 0 0 0
193 2 0.0000000000000000e+00 8.2008326587005342e+01 5.2067328314153318e+00 2.4928604059737040e+01 0 0 0
174 2 0.0000000000000000e+00 8.9672899608209178e+01 2.0685586373566739e+01 2.5265882825796830e+01 0 0 0
117 2 0.0000000000000000e+00 4.1509781263033354e+01 2.9895234347871455e+01 2.4569772297066425e+01 0 0 0
303 2 0.0000000000000000e+00 5.0227584888290124e+01 4.7216580272033497e+01 2.5155749567749549e+01 0 0 0
2 2 0.0000000000000000e+00 4.6303375718528500e+01 5.2588681024192113e+01 2.5364642652061217e+01 -1 0 1
279 2 0.0000000000000000e+00 3.5208739151447475e+01 7.2205964124548942e+01 2.4276883943415985e+01 0 0 0
387 2 0.0000000000000000e+00 5.8592305820307999e+01 8.7476393440564564e+01 2.4183068026560910e+01 -1 1 -1
51 2 0.0000000000000000e+00 3.5837849654220086e+01 9.6540015803568380e+01 2.5331315016694557e+01 0 0 0
167 2 0.0000000000000000e+00 6.0210705465282935e+01 9.7273390120744114e+00 2.6726106248234494e+01 0 0 0
260 2 0.0000000000000000e+00 6.9258094596808519e+01 8.4239533311363424e+00 2.6025300181738356e+01 0 0 0
291 2 0.0000000000000000e+00 3.7983673163301368e+01 1.5543610520334269e+01 2.7455229937387188e+01 0 0 0
185 2 0.0000000000000000e+00 8.2042613505561349e+01 1.8723486775992349e+01 2.6087078280365052e+01 0 0 0
317 2 0.0000000000000000e+00 5.0642619575364932e+01 3.3332171958097064e+01 2.6268455663312874e+01 0 0 0
311 2 0.0000000000000000e+00 4.0686636290495954e+01 3.8913073820088783e+01 2.6033121946729150e+01 0 0 0
124 2 0.0000000000000000e+00 8.2201637496287148e+01 3.8014093093225114e+01 2.7195365648839743e+01 0 0 0
132 2 0.0000000000000000e+00 9.1801488850057396e+01 4.9003079637431057e+01 2.6875551778846901e+01 0 0 0
39 2 0.0000000000000000e+00 3.9420765045720252e+01 8.4006676954152880e+01 2.6415300272397555e+01 0 0 0
381 2 0.0000000000000000e+00 6.3554506032433096e+01 8.5494011592887873e+01 2.6375782355849587e+01 0 0 0
372 2 0.0000000000000000e+00 6.0963733115538112e+01 8.6862325047778086e+01 2.6861869858558226e+01 -1 1 -1
391 2 0.0000000000000000e+00 2.7244037495341754e+01 8.8534553300972277e+01 2.7184611816235936e+01 0 0 0
278 2 0.0000000000000000e+00 1.1823121634274182e+01 9.0906767190209649e+01 2.6794497247102370e+01 0 0 0
321 2 0.0000000000000000e+00 5.8863376449594938e+01 9.5037081193287307e+01 2.6879378753223815e+01 0 0 0
64 2 0.0000000000000000e+00 3.1766331024704979e+01 1.6901442963893100e+01 2.9101541543350393e+01 0 0 0
12 2 0.0000000000000000e+00 9.8206440242252953e+01 3.1032456806947703e+01 2.9576608387502393e+01 -2 -1 1
110 2 0.0000000000000000e+00 7.8422401898236529e+01 4.8152925179089316e+01 2.9733619846828756e+01 1 1 0
139 2 0.0000000000000000e+00 8.9974618516523719e+01 4.8451401715781984e+01 2.9444275574450920e+01 0 0 0
70 2 0.0000000000000000e+00 4.9957002438890967e+00 5.3869036971079062e+01 2.9946763906639742e+01 0 0 0
212 2 0.0000000000000000e+00 9.4007106720980900e+01 6.9546038767294888e+01 2.9698927559295861e+01 -1 -1 0
105 2 0.0000000000000000e+00 6.7789997654987019e+01 7.6066452341011399e+01 2.9754401783305912e+01 0 0 0
355 2 0.0000000000000000e+00 1.2072869305392045e+01 8.6407197226321145e+01 2.8498878505159290e+01 0 0 0
121 2 0.0000000000000000e+00 6.5079872263200457e+01 9.5003762104395804e+01 2.9213735330719288e+01 -1 -1 2
82 2 0.0000000000000000e+00 7.7027859821272784e+01 9.5610275204240807e+01 2.8913134110081263e+01 0 0 0
258 2 0.0000000000000000e+00 5.2523070249991726e+01 9.9763436259048760e+01 2.9969766689775359e+01 -1 -1 0
242 2 0.0000000000000000e+00 7.1331154460008378e+01 1.6050481489530579e+01 3.0930957699760910e+01 0 0 0
238 2 0.0000000000000000e+00 8.6811108550966480e+01 2.1102599742957377e+01 3.1180064450658811e+01 0 0 0
252 2 0.0000000000000000e+00 8.0612127356898682e+01 4.0842090359880096e+01 3.1573926204279132e+01 0 0 0
315 2 0.0000000000000000e+00 6.1599464112588784e+01 6.4095775048623793e+01 3.1650491787161521e+01 0 0 0
106 2 0.0000000000000000e+00 2.5759060858112445e+01 7.9649835872048811e+01 3.1300561330204143e+01 0 0 0
376 2 0.0000000000000000e+00 5.6379598487566078e+01 1.7288981070263794e+01 3.2605542680432471e+01 1 1 -1
322 2 0.0000000000000000e+00 4.9083428205034693e+01 1.3070155180968664e+01 3.3588367011618843e+01 0 0 0
231 2 0.0000000000000000e+00 2.9381346131864785e+01 2.0087877645892721e+01 3.3090545842194963e+01 0 0 0
234 2 0.0000000000000000e+00 7.9600415649372223e+01 2.3546910964000038e+01 3.3440847052552151e+01 0 0 0
89 2 0.0000000000000000e+00 9.7624352125306316e+01 4.0963848240758075e+01 3.3753867696283329e+01 0 0 0
183 2 0.0000000000000000e+00 6.0058410580687891e+01 4.4299950209505297e+01 3.3910719281084383e+01 0 0 0
330 2 0.0000000000000000e+00 9.8129771700759363e+01 4.7061313165115280e+01 3.3484962297210174e+01 0 0 -1
389 2 0.0000000000000000e+00 4.0338778110778186e+01 6.8694034137771226e+01 3.3719350874927265e+01 0 0 0
72 2 0.0000000000000000e+00 7.3076480713695460e+01 8.2153620239824505e+01 3.3954721319748217e+01 0 0 0
379 2 0.0000000000000000e+00 1.4788370622635913e+01 3.9845225157891244e+00 3.5933779289950365e+01 0 0 0
363 2 0.0000000000000000e+00 6.3769571920633695e+01 1.4559396006935007e+01 3.5705143894387938e+01 0 0 0
390 2 0.0000000000000000e+00 5.5276650885938654e+00 2.5299121699836956e+01 3.4124829996132512e+01 0 1 1
380 2 0.0000000000000000e+00 2.2086209790879938e+01 2.5962262691240401e+01 3.4315656123655408e+01 0 0 0
21 2 0.0000000000000000e+00 8.6434322453485748e+01 3.7062733561946182e+01 3.4868102205006522e+01 0 0 0
148 2 0.0000000000000000e+00 8.9158278321251103e+01 6.3652012488446147e+01 3.5040195630788517e+01 0 0 0
56 2 0.0000000000000000e+00 1.7685296585170276e-01 6.6687832249750784e+01 3.5199458626864157e+01 0 0 0
29 2 0.0000000000000000e+00 3.1634923321866591e+01 9.1900679269202257e+01 3.4276253090169170e+01 0 0 0
131 2 0.0000000000000000e+00 6.0041083591368434e+00 2.5256667177937921e+00 3.6455292533451427e+01 0 0 0
307 2 0.0000000000000000e+00 6.6186408774641862e+01 1.6354594302902136e+01 3.7395626771246327e+01 2 1 0
323 2 0.0000000000000000e+00 7.9021548545394850e+01 3.0053411408080251e+01 3.6178342693173995e+01 0 0 0
327 2 0.0000000000000000e+00 3.6464715835769077e+01 3.6094826651950349e+01 3.6609886574347449e+01 -1 0 0
128 2 0.0000000000000000e+00 3.9071967520621733e+01 4.0670208183304865e+01 3.7817221845264356e+01 2 1 1
54 2 0.0000000000000000e+00 1.7563677694740271e+01 5.5200628380478022e+01 3.6751010596188650e+01 0 0 0
250 2 0.0000000000000000e+00 2.8219905819210691e+01 5.7309577809770545e+01 3.7570972349357127e+01 0 0 0
104 2 0.0000000000000000e+00 5.1927432782874142e+01 6.9795349382421364e+01 3.6885774032848161e+01 1 -1 -1
262 2 0.0000000000000000e+00 9.8917369990322570e+01 9.3587250691411597e+01 3.7664908522356342e+01 0 0 0
97 2 0.0000000000000000e+00 3.1318207423527141e+01 9.5133950474277810e+01 3.6219011846373292e+01 0 0 0
237 2 0.0000000000000000e+00 2.4190858996431722e+01 1.9649725893643740e+01 3.9621934015468945e+01 0 0 0
1 2 0.0000000000000000e+00 2.2261504364744813e+01 3.0042730646449133e+01 3.8723096772013733e+01 1 0 1
58 2 0.0000000000000000e+00 6.0668860711325109e+01 3.8528087991401996e+01 3.8103184531634646e+01 0 0 0
156 2 0.0000000000000000e+00 7.4480375954751068e+01 5.0996131213145887e+01 3.8297318562233443e+01 0 0 0
17 2 0.0000000000000000e+00 6.7817567896865171e+01 6.0546260922925249e+01 3.8269853570026427e+01 0 0 0
111 2 0.0000000000000000e+00 6.8760162432540355e+01 6.6772754796733764e+01 3.8032287476243546e+01 0 0 0
141 2 0.0000000000000000e+00 1.9821449641469435e+01 8.1301986297568163e+01 3.8359088501951980e+01 0 0 0
85 2 0.0000000000000000e+00 9.4616426448722436e+01 8.7242067590526005e+01 3.8756127400683859e+01 0 0 0
22 2 0.0000000000000000e+00 5.2993072173969423e+01 8.8761711763740450e+01 3.8720421038029819e+01 0 0 0
253 2 0.0000000000000000e+00 9.6225695156220212e+01 8.8456020683712552e+01 3.9653084813738388e+01 0 0 0
184 2 0.0000000000000000e+00 9.8546579277455152e+01 2.1392538594619168e+00 4.0721003590159945e+01 0 0 0
186 2 0.0000000000000000e+00 3.9953022328847652e+01 9.3726743508148811e+00 4.1757894215940858e+01 0 0 0
16 2 0.0000000000000000e+00 5.1010177635479295e+01 9.6989386344122526e+00 4.0710522251824159e+01 0 0 0
188 2 0.0000000000000000e+00 4.1530756108277004e+01 1.3199395903835963e+01 4.0403079453787257e+01 0 0 0
45 2 0.0000000000000000e+00 2.0287066843716072e+01 2.1388149673414308e+01 4.0548733134925840e+01 -1 -1 0
319 2 0.0000000000000000e+00 7.5394807009705872e+01 2.4777993353757719e+01 4.1549770122013044e+01 0 0 0
215 2 0.0000000000000000e+00 1.5062856832238261e+01 2.5286602945346846e+01 3.9346944582553895e+01 0 0 -1
71 2 0.0000000000000000e+00 1.3297550885737541e+01 2.9695166095418728e+01 4.1380520273387965e+01 0 0 0
150 2 0.0000000000000000e+00 3.1186303084044152e+01 3.6074958653045023e+01 4.1704892994431994e+01 2 -2 -1
101 2 0.0000000000000000e+00 1.3699904882107916e+01 4.5444822381231155e+01 4.1798072079697064e+01 0 -2 -1
302 2 0.0000000000000000e+00 4.5217227188368419e+01 5.5408205018529991e+01 4.0563833799843543e+01 0 0 0
216 2 0.0000000000000000e+00 8.5165891943780878e+01 7.0277990841700429e+01 4.1037922431290831e+01 0 0 0
11 2 0.0000000000000000e+00 5.7650297591980618e+01 9.1452589849757373e+01 4.0327535235962081e+01 0 0 0
60 2 0.0000000000000000e+00 6.8009371206094400e+00 9.5938177689919826e+01 4.1738647655461307e+01 0 0 0
77 2 0.0000000000000000e+00 2.1925772537252978e+01 9.5592862573204300e+01 4.0260512648433142e+01 0 0 0
324 2 0.0000000000000000e+00 2.7570882383136510e+01 2.2584941815647351e+01 4.3268942661288200e+01 0 0 0
235 2 0.0000000000000000e+00 6.0288017902521815e+01 2.6882621737344852e+01 4.2908945525814147e+01 0 0 0
125 2 0.0000000000000000e+00 5.8825636546352191e+00 3.5768073120284789e+01 4.2509881701632416e+01 0 0 0
211 2 0.0000000000000000e+00 4.2623991556174225e+01 6.3405772928886464e+01 4.2379554204348551e+01 0 0 0
187 2 0.0000000000000000e+00 3.1219840309093879e+01 8.1478007664764149e+01 4.3482096448388319e+01 0 0 0
69 2 0.0000000000000000e+00 3.5077739054836023e+01 8.1828989925214657e+01 4.3389145136109860e+01 0 0 0
65 2 0.0000000000000000e+00 2.0774276556576542e+01 8.6604340616139069e+01 4.2351783053892099e+01 0 0 0
102 2 0.0000000000000000e+00 7.2237137546854782e+01 9.3809666921359039e+01 4.3147045196610364e+01 0 0 0
203 2 0.0000000000000000e+00 6.3197841971614146e+00 1.9132303731205929e+00 4.5790294954675140e+01 -1 1 -1
308 2 0.0000000000000000e+00 5.0645273913569973e+01 2.6774074637896792e+01 4.4172605955240307e+01 0 0 0
47 2 0.0000000000000000e+00 7.0747930638064219e+01 3.8494714169590416e+01 4.4666770190277724e+01 0 0 0
297 2 0.0000000000000000e+00 4.3626722266533633e+01 4.5043581090633182e+01 4.4908307163154142e+01 0 -3 0
78 2 0.0000000000000000e+00 1.4380686290033053e+01 6.8223931899544780e+01 4.5636423787065461e+01 0 0 0
284 2 0.0000000000000000e+00 7.5637378183567927e+00 3.0825372175488848e+01 4.7298355596240363e+01 0 0 0
241 2 0.0000000000000000e+00 8.1264920715920226e+01 4.6607274531016571e+01 4.6188400181862278e+01 2 1 -1
353 2 0.0000000000000000e+00 3.5182867244055174e+01 5.2672993989927512e+01 4.6739742349846274e+01 0 0 0
192 2 0.0000000000000000e+00 6.0762653553375976e+01 6.2069951781000647e+01 4.6794643232723899e+01 0 0 0
166 2 0.0000000000000000e+00 8.2493765887013254e+01 6.3620454090120930e+01 4.5746378179175800e+01 1 -1 -1
35 2 0.0000000000000000e+00 5.1856772069907521e+01 7.5085348155651872e+01 4.6319436399077681e+01 -2 0 1
42 2 0.0000000000000000e+00 9.9394621147266747e+01 3.3804765760061288e+00 4.9250169150320829e+01 0 0 0
41 2 0.0000000000000000e+00 3.8052157773153283e+01 4.5180861231313996e+00 4.9235570900134881e+01 0 1 -1
87 2 0.0000000000000000e+00 8.0971214940752304e+01 5.4902344906883185e+00 4.9854449898705361e+01 0 0 0
281 2 0.0000000000000000e+00 4.8065173598300646e+01 1.0655557704205155e+01 4.8215464151627472e+01 0 0 0
25 2 0.0000000000000000e+00 4.1017645697404312e+01 2.4013948237074814e+01 4.9382339331208726e+01 0 0 0
19 2 0.0000000000000000e+00 4.1612770911918204e+01 3.1130301195351841e+01 4.9956943517974153e+01 0 0 0
220 2 0.0000000000000000e+00 3.4696200016478107e+00 5.4079726982133103e+01 4.9713639444737794e+01 0 0 0
268 2 0.0000000000000000e+00 2.4643917704776250e+01 7.0647049963344926e+01 4.8916691516159119e+01 0 0 1
136 2 0.0000000000000000e+00 3.6214392458679178e+01 7.1725496513668887e+01 4.8465913796098640e+01 0 0 0
374 2 0.0000000000000000e+00 7.0191584262940069e+01 8.0213239466983509e+01 4.8137468826459695e+01 0 0 0
210 2 0.0000000000000000e+00 1.0853299176030070e+01 8.3497292687110743e+01 4.9054742931374861e+01 0 0 0
263 2 0.0000000000000000e+00 6.3481650850887149e+01 8.2524706987360474e+01 4.8776596146517029e+01 0 0 0
227 2 0.0000000000000000e+00 9.7564422137924964e+01 1.4815982323606553e+01 5.0434581834401563e+01 0 0 0
251 2 0.0000000000000000e+00 2.4352915576956843e+01 3.9635902874079441e+01 5.1807099393593717e+01 2 0 0
13 2 0.0000000000000000e+00 2.7378788196957728e+00 4.0092294126247253e+01 5.0918508386558855e+01 0 0 0
347 2 0.0000000000000000e+00 2.2907493932630679e+01 4.3558561765764971e+01 5.1647583393220600e+01 0 0 0
84 2 0.0000000000000000e+00 1.5993417662259501e+01 4.6173016932736758e+01 5.1780972065297227e+01 0 0 0
208 2 0.0000000000000000e+00 9.4257626118879642e+01 5.5721520392487143e+01 5.1614956308141743e+01 0 0 0
49 2 0.0000000000000000e+00 9.1507291080477572e+01 7.0477843642865608e+01 5.0709578122965993e+01 0 0 0
114 2 0.0000000000000000e+00 2.2397858990456832e+01 7.8443918109302643e+01 5.0325800119848225e+01 0 0 0
63 2 0.0000000000000000e+00 7.5786042956706012e+01 8.6858626845021917e+01 5.0907305610280169e+01 0 0 0
53 2 0.0000000000000000e+00 5.2647766542105096e+01 4.8118387512186436e+00 5.3428840975225278e+01 0 0 1
196 2 0.0000000000000000e+00 8.6345296709317438e+01 9.3625111106348502e+00 5.3481594366062701e+01 0 -1 0
360 2 0.0000000000000000e+00 7.8266067938245953e+01 3.9971136362026058e+01 5.3105778468221182e+01 0 0 0
309 2 0.0000000000000000e+00 9.1886379757452474e+01 3.9695817710769830e+01 5.2322606187057758e+01 0 0 0
354 2 0.0000000000000000e+00 5.7792557755721020e+01 6.3706375528366969e+01 5.2801072043799387e+01 1 1 0
299 2 0.0000000000000000e+00 5.3687148953238271e+01 7.0948653228938284e+01 5.2457546880478006e+01 0 0 0
339 2 0.0000000000000000e+00 6.8668106449954877e+01 8.2384119425978767e+01 5.3174472508310629e+01 -1 1 1
341 2 0.0000000000000000e+00 4.4371268838189764e+01 8.4092717094762506e+01 5.2025269562637831e+01 0 0 0
144 2 0.0000000000000000e+00 9.1982674771031370e+01 8.4244348294970493e+01 5.3454672466761828e+01 0 0 0
298 2 0.0000000000000000e+00 3.3547923639356902e+01 1.4420307519039483e+01 5.4724603577348091e+01 0 0 0
44 2 0.0000000000000000e+00 1.6575740373360592e+01 3.2294968641329959e+01 5.4872484568689224e+01 0 0 0
83 2 0.0000000000000000e+00 9.4225396333647154e+01 3.9054690710273263e+01 5.5630384734273562e+01 0 0 0
222 2 0.0000000000000000e+00 1.2415531987734193e+01 7.3847388692589604e+01 5.4144688898437025e+01 0 0 0
350 2 0.0000000000000000e+00 3.2126942933067546e+01 9.2780993018524569e+01 5.4656658769581682e+01 0 0 0
30 2 0.0000000000000000e+00 4.6101227783678667e+01 7.5872605243937494e+00 5.6273549181011781e+01 0 0 0
213 2 0.0000000000000000e+00 3.3179927500884631e+01 2.7738047506508927e+01 5.6420478892030026e+01 0 1 -1
90 2 0.0000000000000000e+00 6.2829142565882940e+01 4.3655488598673202e+01 5.6141365697313027e+01 0 0 0
99 2 0.0000000000000000e+00 2.3287865381302797e+01 7.4094068995083674e+01 5.6097198950990595e+01 0 0 0
383 2 0.0000000000000000e+00 1.4547036124132728e+01 8.3034987177683650e+00 5.9135302138041553e+01 0 -1 1
357 2 0.0000000000000000e+00 7.3166512513127529e+01 1.5346565886995648e+01 5.8419443047617762e+01 0 0 0
160 2 0.0000000000000000e+00 3.9411102094367751e+00 3.0975301475633618e+01 5.9257505257842261e+01 3 0 2
340 2 0.0000000000000000e+00 3.1565249871383223e+01 3.4679237848686874e+01 5.8014724784988751e+01 0 0 0
335 2 0.0000000000000000e+00 6.0577056340791636e+01 3.8155118083332582e+01 5.8742363714290804e+01 0 0 0
109 2 0.0000000000000000e+00 5.7345605695785622e+01 4.6299251497242395e+01 5.8213936268891473e+01 0 0 0
164 2 0.0000000000000000e+00 7.4380458030291891e+01 4.8626046498885700e+01 5.9915708702537628e+01 0 0 0
269 2 0.0000000000000000e+00 2.5741061815179975e+01 6.3879800141049600e+01 5.9327050177996171e+01 0 0 0
217 2 0.0000000000000000e+00 1.8677935763599002e+01 8.2349546961371871e+01 5.8289906508821197e+01 0 0 0
153 2 0.0000000000000000e+00 3.0283695049054877e+01 8.5840840814182684e+01 5.8108599117656880e+01 0 0 0
143 2 0.0000000000000000e+00 3.0594852028903752e+01 6.3981864790986522e+00 6.1366102856298447e+01 0 0 0
9 2 0.0000000000000000e+00 3.8812963786869091e+01 5.1563446085862104e+01 6.1620677608685817e+01 0 0 0
177 2 0.0000000000000000e+00 7.1606177682511301e+01 6.3473539027848517e+01 6.0971545695998273e+01 0 0 0
280 2 0.0000000000000000e+00 7.2581298421348023e+01 6.8102615132420496e+01 6.1291709238683936e+01 0 0 0
81 2 0.0000000000000000e+00 9.7120027276881771e+01 7.6245673111976103e+01 6.0193637320151879e+01 0 0 0
356 2 0.0000000000000000e+00 3.1759676406979523e+01 6.3889568828603549e+00 6.3529043682845973e+01 -1 2 0
233 2 0.0000000000000000e+00 1.9893516093892678e+01 2.3290819729943692e+01 6.3431915438767334e+01 0 0 0
152 2 0.0000000000000000e+00 5.5782746662149108e+01 7.2319180467714034e+01 6.2317835568177870e+01 1 -2 -1
396 2 0.0000000000000000e+00 8.0020026358075000e+01 2.2092741188078712e+01 6.5842941562974303e+01 0 0 0
398 2 0.0000000000000000e+00 3.7569709063787760e-01 3.7983315246891770e+01 6.4219631232836448e+01 1 0 0
126 2 0.0000000000000000e+00 2.1476932364153857e+01 4.0085597932862541e+01 6.4063410548533142e+01 0 0 0
161 2 0.0000000000000000e+00 7.7894716131731812e+01 4.2925572863030666e+01 6.5217273763144050e+01 0 0 0
162 2 0.0000000000000000e+00 7.4853000455588461e+00 4.6638454838696845e+01 6.5567711585434040e+01 0 0 0
296 2 0.0000000000000000e+00 1.9166292319579544e+01 4.8638244821065854e+01 6.5170649365337809e+01 0 0 0
346 2 0.0000000000000000e+00 5.1107688681796112e+01 4.9032314795118786e+01 6.4753923489466857e+01 0 0 0
314 2 0.0000000000000000e+00 2.6436659792603407e+01 5.8264469990216469e+01 6.4340386920853902e+01 0 0 0
349 2 0.0000000000000000e+00 2.6012806211576191e+01 7.0597074191071158e+01 6.4653588743859387e+01 0 0 0
36 2 0.0000000000000000e+00 2.9755079362732022e+01 7.0830184060666383e+01 6.5953836418490482e+01 0 -1 0
205 2 0.0000000000000000e+00 7.7668198406361213e+01 8.0446409674305173e+01 6.5234668111362481e+01 0 0 0
248 2 0.0000000000000000e+00 7.3846721995158489e+01 9.5028379781650969e+01 6.5521239145207133e+01 0 -2 -1
325 2 0.0000000000000000e+00 5.0851738222052789e-01 9.7844051311103541e+01 6.5766555701937619e+01 0 0 0
119 2 0.0000000000000000e+00 6.7239665289161579e+01 1.7133765659122082e+00 6.6584469041239785e+01 0 0 0
221 2 0.0000000000000000e+00 4.1900182090909482e+01 1.2146734316069027e+01 6.7253649927840172e+01 0 0 0
249 2 0.0000000000000000e+00 2.9165112882710417e+01 1.7842095430969287e+01 6.6954114607761412e+01 0 0 0
219 2 0.0000000000000000e+00 5.5478401239114561e+01 2.3111277780610298e+01 6.7420510688898631e+01 0 0 0
24 2 0.0000000000000000e+00 7.7223091005120921e+01 2.9689444283429363e+01 6.6102706428413200e+01 0 0 0
157 2 0.0000000000000000e+00 5.9064462588563096e+01 5.5168170521183733e+01 6.6117255381872340e+01 -2 0 -1
201 2 0.0000000000000000e+00 5.9048598085123281e+01 6.0286211219123174e+01 6.7146295292054546e+01 0 0 0
43 2 0.0000000000000000e+00 3.3159937328430281e+01 6.8938824685544915e+01 6.6365060370027237e+01 0 0 0
123 2 0.0000000000000000e+00 2.4560089522223718e+00 1.6778693558723827e+00 6.8633371108839285e+01 0 0 0
127 2 0.0000000000000000e+00 3.8483613881762622e+01 1.2128495768500461e+01 6.9755596034388759e+01 0 0 0
316 2 0.0000000000000000e+00 9.7540148517330422e+01 7.0463488739343092e+01 6.9711046085698413e+01 0 0 0
142 2 0.0000000000000000e+00 2.8582223329772301e+01 8.2884556464205318e+01 6.9149432998304889e+01 1 1 1
368 2 0.0000000000000000e+00 9.9109546434747600e+01 5.1518278614739074e+01 7.0090108641665353e+01 0 0 0