LAMMPS (29 Sep 2021 - Update 2)
OMP_NUM_THREADS environment is not set. Defaulting to 1 thread. (src/comm.cpp:98)
  using 1 OpenMP thread(s) per MPI task
#============Initialization=================
units 			metal
atom_style 		atomic
boundary 		p p p

############################################
#              CLI Variables               #
############################################
variable 		seed index 625000          #
variable 		N index 16                 #
variable 		iter index 1000000         #
variable 		iterther index 100000      #
variable 		iexport index 1000         #
variable 		tempchauf index 3000       #
variable 		Tdamp index 0.001          #
variable 		timestep index 0.0001      #
variable 		box_size index 40		   #
############################################
############################################

#=========Simulation box definition=========
lattice 		sc 1.0
Lattice spacing in x,y,z = 1.0000000 1.0000000 1.0000000
region 			bigbox block 0 ${box_size} 0 ${box_size} 0 ${box_size}
region 			bigbox block 0 40 0 ${box_size} 0 ${box_size}
region 			bigbox block 0 40 0 40 0 ${box_size}
region 			bigbox block 0 40 0 40 0 40
create_box 		1 bigbox
Created orthogonal box = (0.0000000 0.0000000 0.0000000) to (40.000000 40.000000 40.000000)
  1 by 1 by 1 MPI processor grid

#==================Atoms====================
region 			safezone block 6 9 6 9 6 9 units box
create_atoms 	1 random ${N} ${seed} safezone
create_atoms 	1 random 16 ${seed} safezone
create_atoms 	1 random 16 625000 safezone
Created 16 atoms
  using lattice units in orthogonal box = (0.0000000 0.0000000 0.0000000) to (40.000000 40.000000 40.000000)
  create_atoms CPU = 0.001 seconds
mass 			* 12.01


#==========Velocity initialization==========
velocity 		all create 0.0000001 1563967 rot yes dist gaussian

#======Pair style for atom interactions=============
pair_style 		airebo 1.8 1 1
pair_coeff 		* * CH.airebo C
Reading airebo potential file CH.airebo with DATE: 2011-10-25

#==============Neighbor selection===================
neighbor 		0.3 bin
neigh_modify 	every 1 delay 0 check yes


#=====================Timestep======================
timestep 		${timestep}
timestep 		0.0001

#===============Define dump command=================
dump 			1 all cfg 100000 ./dump/dump.tensile_*.cfg mass type xs ys zs vx vy vz id

#========System temperature printing info===========
thermo_style 	custom step temp etotal epair pe ke
thermo 			${iexport}	# 1'000'000
thermo 			1000	


#====================CRC Cycle======================

#=============Condensation et chauffe===============
fix 			1 all nve
fix 			2 all temp/berendsen 0.0 ${tempchauf} ${Tdamp}
fix 			2 all temp/berendsen 0.0 3000 ${Tdamp}
fix 			2 all temp/berendsen 0.0 3000 0.001
fix             3 all momentum 1 linear 1 1 1 angular rescale

run 			${iter}
run 			1000000
Neighbor list info ...
  update every 1 steps, delay 0 steps, check yes
  max neighbors/atom: 2000, page size: 100000
  master list distance cutoff = 8.116371
  ghost atom cutoff = 8.116371
  binsize = 4.0581855, bins = 10 10 10
  1 neighbor lists, perpetual/occasional/extra = 1 0 0
  (1) pair airebo, perpetual
      attributes: full, newton on, ghost
      pair build: full/bin/ghost
      stencil: full/ghost/bin/3d
      bin: standard
Per MPI rank memory allocation (min/avg/max) = 5.140 | 5.140 | 5.140 Mbytes
Step Temp TotEng E_pair PotEng KinEng 
       0        1e-07    8063.1134    8063.1134    8063.1134 1.9389022e-10 
    1000    25.641186   -68.957541   -69.007257   -69.007257  0.049715751 
    2000    12.279381   -72.237898   -72.261706   -72.261706  0.023808518 
    3000    11.343174   -72.985395   -73.007388   -73.007388  0.021993304 
    4000    14.159728   -73.478481   -73.505935   -73.505935  0.027454328 
    5000    16.911765   -73.921103   -73.953893   -73.953893  0.032790258 
    6000    19.694384   -74.308668   -74.346853   -74.346853  0.038185483 
    7000    22.366793   -74.641156   -74.684523   -74.684523  0.043367023 
    8000    24.986125   -74.890819   -74.939264   -74.939264  0.048445651 
    9000    27.849622   -75.084425   -75.138423   -75.138423  0.053997693 
   10000    30.806757   -75.248275   -75.308006   -75.308006  0.059731287 
   11000       33.505   -75.381287    -75.44625    -75.44625  0.064962917 
   12000    36.243199   -75.470075   -75.540347   -75.540347  0.070272018 
   13000    39.500698   -75.535068   -75.611656   -75.611656   0.07658799 
   14000    43.591426   -75.673164   -75.757683   -75.757683  0.084519511 
   15000    46.183302   -75.651983   -75.741528   -75.741528  0.089544904 
   16000    48.076249   -75.638586   -75.731801   -75.731801  0.093215144 
   17000    51.025198   -75.611842   -75.710775   -75.710775  0.098932868 
   18000    54.983665   -75.587201   -75.693809   -75.693809   0.10660795 
   19000    57.625356   -75.623059   -75.734789   -75.734789   0.11172993 
   20000    61.052973   -75.609688   -75.728063   -75.728063   0.11837574 
   21000    60.953049   -75.586867   -75.705049   -75.705049     0.118182 
   22000    65.655929   -75.577671   -75.704972   -75.704972   0.12730042 
   23000    68.239411   -75.670861    -75.80317    -75.80317   0.13230954 
   24000    72.127405   -75.637499   -75.777347   -75.777347   0.13984798 
   25000    75.748863   -75.638337   -75.785206   -75.785206   0.14686964 
   26000     79.42615   -75.647863   -75.801863   -75.801863   0.15399953 
   27000    80.880245   -75.620833   -75.777652   -75.777652   0.15681888 
   28000    84.453025   -75.581898   -75.745645   -75.745645   0.16374615 
   29000    90.064405   -75.604243   -75.778869   -75.778869   0.17462607 
   30000    90.159934   -75.536386   -75.711198   -75.711198   0.17481129 
   31000    92.610184   -75.531084   -75.710646   -75.710646   0.17956209 
   32000    96.061262   -75.523793   -75.710047   -75.710047   0.18625339 
   33000    99.817784   -75.440812   -75.634349   -75.634349   0.19353692 
   34000    103.31289   -75.458518   -75.658831   -75.658831   0.20031358 
   35000    105.68364   -75.493209   -75.698119   -75.698119   0.20491024 
   36000    106.32411   -75.486957   -75.693109   -75.693109   0.20615204 
   37000    108.78793   -75.512517   -75.723446   -75.723446   0.21092916 
   38000    114.05364   -75.554501    -75.77564    -75.77564   0.22113885 
   39000    116.37032   -75.536176   -75.761807   -75.761807   0.22563066 
   40000    119.48098   -75.542914   -75.774576   -75.774576   0.23166192 
   41000    122.39787   -75.522544   -75.759862   -75.759862   0.23731749 
   42000    128.97892   -75.519615   -75.769693   -75.769693   0.25007751 
   43000    126.41733   -75.465545   -75.710656   -75.710656   0.24511084 
   44000    130.51411   -75.431799   -75.684853   -75.684853   0.25305409 
   45000    135.65944   -75.446248   -75.709278   -75.709278   0.26303037 
   46000    135.51767   -75.366704   -75.629459   -75.629459    0.2627555 
   47000    143.39091   -75.397357   -75.675378   -75.675378   0.27802095 
   48000    141.60075   -75.423893   -75.698443   -75.698443      0.27455 
   49000    148.36584   -75.433714   -75.721381   -75.721381   0.28766686 
   50000    148.29818   -75.452006   -75.739542   -75.739542   0.28753566 
   51000    153.38736   -75.406703   -75.704106   -75.704106   0.29740308 
   52000    156.40149   -75.449213    -75.75246    -75.75246    0.3032472 
   53000    159.01851   -75.440671   -75.748993   -75.748993   0.30832134 
   54000    160.98023   -75.464711   -75.776836   -75.776836   0.31212492 
   55000    165.10048   -75.440016   -75.760129   -75.760129   0.32011368 
   56000    167.73603   -75.397915   -75.723139   -75.723139   0.32522375 
   57000    169.29922   -75.346291   -75.674546   -75.674546   0.32825462 
   58000    175.65115   -75.319477   -75.660048   -75.660048    0.3405704 
   59000    178.08671    -75.29879   -75.644082   -75.644082    0.3452927 
   60000    178.06161   -75.319173   -75.664417   -75.664417   0.34524405 
   61000    181.84688    -75.33606   -75.688643   -75.688643   0.35258331 
   62000    187.05775    -75.33379   -75.696477   -75.696477   0.36268668 
   63000    187.26314    -75.34063   -75.703715   -75.703715   0.36308491 
   64000    188.25042   -75.389788   -75.754787   -75.754787   0.36499916 
   65000    193.89501   -75.388431   -75.764374   -75.764374   0.37594346 
   66000    200.04242   -75.352331   -75.740194   -75.740194   0.38786268 
   67000    200.59368   -75.359039   -75.747971   -75.747971   0.38893153 
   68000    204.77673   -75.283843   -75.680886   -75.680886   0.39704205 
   69000    214.55821   -75.313781   -75.729788   -75.729788   0.41600738 
   70000    205.23256   -75.318596   -75.716522   -75.716522   0.39792585 
   71000     209.5438   -75.289771   -75.696056   -75.696056   0.40628493 
   72000    215.24451   -75.291414   -75.708752   -75.708752   0.41733805 
   73000     217.7943   -75.274619   -75.696901   -75.696901   0.42228183 
   74000    225.14527   -75.302619   -75.739153   -75.739153   0.43653465 
   75000     222.9493   -75.312045   -75.744322   -75.744322   0.43227688 
   76000    225.76548   -75.265201   -75.702938   -75.702938   0.43773719 
   77000    232.45861   -75.285568   -75.736282   -75.736282    0.4507145 
   78000    235.58265   -75.309964   -75.766736   -75.766736   0.45677172 
   79000    239.91505   -75.315183   -75.780355   -75.780355    0.4651718 
   80000    239.24015   -75.277463   -75.741327   -75.741327   0.46386325 
   81000    243.98251   -75.303951   -75.777009   -75.777009   0.47305822 
   82000    247.36007   -75.239353    -75.71896    -75.71896   0.47960698 
   83000    247.67566    -75.19864   -75.678859   -75.678859   0.48021888 
   84000    251.20297   -75.190198   -75.677256   -75.677256   0.48705798 
   85000    255.63387    -75.18744   -75.683089   -75.683089   0.49564907 
   86000     257.6055   -75.203119   -75.702591   -75.702591   0.49947187 
   87000    261.77686   -75.226246   -75.733806   -75.733806   0.50755973 
   88000    263.69472   -75.230978   -75.742256   -75.742256   0.51127827 
   89000    265.10419   -75.240554   -75.754565   -75.754565   0.51401108 
   90000    269.65017   -75.238893   -75.761718   -75.761718   0.52282529 
   91000    272.69732   -75.225688   -75.754421   -75.754421   0.52873344 
   92000    274.03826   -75.227536   -75.758869   -75.758869   0.53133339 
   93000    276.82179   -75.152722   -75.689453   -75.689453   0.53673038 
   94000    283.76459   -75.184455   -75.734647   -75.734647   0.55019178 
   95000    284.22775   -75.192118   -75.743208   -75.743208   0.55108981 
   96000    289.28536   -75.170195   -75.731091   -75.731091   0.56089601 
   97000    291.18181   -75.166127     -75.7307     -75.7307   0.56457304 
   98000    298.67023   -75.132259   -75.711352   -75.711352   0.57909235 
   99000    297.19524   -75.150559   -75.726792   -75.726792    0.5762325 
  100000    296.07364   -75.138073   -75.712131   -75.712131   0.57405782 
  101000    302.19556    -75.13499   -75.720917   -75.720917   0.58592762 
  102000    307.09312   -75.129016   -75.724439   -75.724439   0.59542352 
  103000    309.83914   -75.134156   -75.734904   -75.734904   0.60074778 
  104000     313.3387   -75.168755   -75.776288   -75.776288   0.60753308 
  105000    314.23871    -75.17413   -75.783408   -75.783408   0.60927812 
  106000    318.76506   -75.158553   -75.776607   -75.776607   0.61805426 
  107000    322.75004   -75.132457   -75.758238   -75.758238   0.62578075 
  108000    323.79063    -75.13778   -75.765578   -75.765578   0.62779837 
  109000    325.09883   -75.122409   -75.752744   -75.752744   0.63033483 
  110000     325.6863   -75.074591   -75.706065   -75.706065   0.63147387 
  111000    334.83738   -75.031695   -75.680912   -75.680912   0.64921692 
  112000    336.32243   -75.079479   -75.731575   -75.731575   0.65209629 
  113000    337.44895   -75.081265   -75.735545   -75.735545   0.65428051 
  114000    340.50775    -75.03824   -75.698452   -75.698452   0.66021122 
  115000    347.68426   -75.099562   -75.773688   -75.773688   0.67412577 
  116000    348.75726   -75.121813   -75.798019   -75.798019   0.67620621 
  117000    351.67513   -75.105054   -75.786918   -75.786918   0.68186368 
  118000    352.14086   -75.051068   -75.733835   -75.733835   0.68276667 
  119000    355.36816   -75.051815   -75.740839   -75.740839    0.6890241 
  120000    359.12404   -75.042488   -75.738794   -75.738794   0.69630638 
  121000     364.9681   -75.072291   -75.779928   -75.779928   0.70763745 
  122000    363.57942   -75.059346   -75.764291   -75.764291   0.70494493 
  123000    366.72752   -75.041966   -75.753015   -75.753015   0.71104879 
  124000    370.56163   -75.015967    -75.73445    -75.73445   0.71848275 
  125000    373.87019   -74.991742    -75.71664    -75.71664   0.72489772 
  126000    377.57646   -74.989814   -75.721898   -75.721898   0.73208383 
  127000    381.11784   -74.976821   -75.715771   -75.715771   0.73895021 
  128000    384.38226   -74.999421   -75.744701   -75.744701    0.7452796 
  129000    386.06414   -74.987813   -75.736354   -75.736354   0.74854059 
  130000    389.56681   -75.018722   -75.774053   -75.774053   0.75533194 
  131000    393.61717   -74.997154   -75.760339   -75.760339   0.76318518 
  132000    398.14428   -75.021714   -75.793677   -75.793677   0.77196281 
  133000    396.49017   -75.007573   -75.776329   -75.776329   0.76875564 
  134000    401.29898   -75.006345   -75.784424   -75.784424   0.77807946 
  135000    406.45537    -74.97473   -75.762807   -75.762807    0.7880772 
  136000    405.44764    -74.96562   -75.751744   -75.751744   0.78612332 
  137000    412.95251   -74.960761   -75.761436   -75.761436   0.80067453 
  138000    414.52605   -74.934583   -75.738308   -75.738308   0.80372546 
  139000    412.32334   -74.932062   -75.731517   -75.731517   0.79945463 
  140000    421.87115   -74.901103    -75.71907    -75.71907    0.8179669 
  141000    422.14576   -74.927217   -75.745716   -75.745716   0.81849932 
  142000     424.7329   -74.907157   -75.730673   -75.730673   0.82351554 
  143000    429.18951   -74.934954   -75.767111   -75.767111   0.83215647 
  144000    431.92979    -74.91805   -75.755519   -75.755519    0.8374696 
  145000     435.1094   -74.933216   -75.776851   -75.776851   0.84363456 
  146000    439.12596   -74.919923   -75.771345   -75.771345   0.85142228 
  147000    440.35797   -74.936083   -75.789894   -75.789894   0.85381102 
  148000     443.7125   -74.919436   -75.779751   -75.779751   0.86031513 
  149000    445.78301   -74.899642   -75.763972   -75.763972   0.86432966 
  150000    451.69031   -74.907595   -75.783378   -75.783378   0.87578332 
  151000    451.50818   -74.880562   -75.755992   -75.755992   0.87543018 
  152000    457.18707   -74.855773   -75.742214   -75.742214   0.88644101 
  153000    456.86684   -74.845205   -75.731025   -75.731025    0.8858201 
  154000    463.54854   -74.836207   -75.734982   -75.734982   0.89877528 
  155000     465.9908    -74.83197    -75.73548    -75.73548   0.90351057 
  156000    467.55009   -74.844837   -75.751371   -75.751371   0.90653388 
  157000    470.38296   -74.859166   -75.771193   -75.771193   0.91202655 
  158000    474.37287   -74.852571   -75.772333   -75.772333   0.91976259 
  159000    477.75296   -74.864133   -75.790449   -75.790449   0.92631625 
  160000    479.82995   -74.860451   -75.790794   -75.790794   0.93034333 
  161000    483.83697   -74.838342   -75.776455   -75.776455   0.93811256 
  162000    484.31663   -74.815503   -75.754546   -75.754546   0.93904256 
  163000    485.59985    -74.80954   -75.751071   -75.751071   0.94153061 
  164000    492.20783   -74.799784   -75.754127   -75.754127   0.95434283 
  165000    495.00638   -74.818796   -75.778565   -75.778565   0.95976895 
  166000    497.25858   -74.792591   -75.756727   -75.756727   0.96413574 
  167000    501.00951   -74.780098   -75.751506   -75.751506   0.97140842 
  168000    501.89142   -74.772751    -75.74587    -75.74587   0.97311837 
  169000    506.75228   -74.787519   -75.770062   -75.770062   0.98254309 
  170000    508.03754   -74.775404   -75.760439   -75.760439    0.9850351 
  171000     510.1361   -74.782546    -75.77165    -75.77165     0.989104 
  172000    517.46977   -74.810669   -75.813992   -75.813992    1.0033233 
  173000    518.36094   -74.802297   -75.807348   -75.807348    1.0050511 
  174000    524.15526   -74.790502   -75.806787   -75.806787    1.0162858 
  175000    524.08367   -74.763163    -75.77931    -75.77931     1.016147 
  176000    526.58369   -74.743121   -75.764115   -75.764115    1.0209943 
  177000     530.5617   -74.725786   -75.754493   -75.754493    1.0287072 
  178000    533.70115   -74.701943   -75.736737   -75.736737    1.0347943 
  179000    534.91737   -74.693347   -75.730499   -75.730499    1.0371524 
  180000     539.6627   -74.709215   -75.755569   -75.755569    1.0463532 
  181000    543.90668    -74.70237   -75.756952   -75.756952    1.0545818 
  182000    544.20256   -74.706625    -75.76178    -75.76178    1.0551555 
  183000    547.74409   -74.725818    -75.78784    -75.78784    1.0620222 
  184000    550.52424   -74.722469   -75.789881   -75.789881    1.0674127 
  185000    554.61978   -74.733661   -75.809014   -75.809014    1.0753535 
  186000    558.29723   -74.700333   -75.782816   -75.782816    1.0824837 
  187000    560.70839   -74.684161    -75.77132    -75.77132    1.0871587 
  188000    563.07537   -74.669317   -75.761065   -75.761065    1.0917481 
  189000    565.13497   -74.679077   -75.774818   -75.774818    1.0957414 
  190000    568.27996   -74.671498   -75.773337   -75.773337    1.1018393 
  191000    573.25921   -74.680265   -75.791759   -75.791759    1.1114935 
  192000    575.89311   -74.635456   -75.752057   -75.752057    1.1166004 
  193000    579.80906   -74.623906   -75.748099   -75.748099     1.124193 
  194000    582.04755   -74.618142   -75.746676   -75.746676    1.1285333 
  195000    584.70283   -74.625791   -75.759472   -75.759472    1.1336816 
  196000    587.26253   -74.615749   -75.754393   -75.754393    1.1386446 
  197000    591.95052   -74.642581   -75.790315   -75.790315    1.1477341 
  198000    594.33786   -74.619471   -75.771834   -75.771834     1.152363 
  199000     596.5236   -74.643021   -75.799622   -75.799622    1.1566009 
  200000    599.80968     -74.6143   -75.777273   -75.777273    1.1629723 
  201000    602.20145   -74.626206   -75.793816   -75.793816    1.1676097 
  202000    607.70227   -74.596667   -75.774943   -75.774943    1.1782753 
  203000    609.51177   -74.586938   -75.768722   -75.768722    1.1817837 
  204000    612.12216   -74.577727   -75.764572   -75.764572     1.186845 
  205000    614.66321   -74.551892   -75.743664   -75.743664    1.1917718 
  206000    618.79879   -74.561883   -75.761674   -75.761674    1.1997903 
  207000    621.33669   -74.556087   -75.760798   -75.760798    1.2047111 
  208000    624.85918   -74.530046   -75.741587   -75.741587    1.2115408 
  209000    629.78552   -74.534763   -75.755855   -75.755855    1.2210925 
  210000    629.25376   -74.548421   -75.768482   -75.768482    1.2200615 
  211000    632.91421   -74.554198   -75.781357   -75.781357    1.2271587 
  212000    635.78919   -74.552954   -75.785687   -75.785687     1.232733 
  213000    639.49363    -74.51646   -75.756376   -75.756376    1.2399156 
  214000    644.22178   -74.517175   -75.766258   -75.766258     1.249083 
  215000    643.48433   -74.538005   -75.785658   -75.785658    1.2476532 
  216000    648.21582   -74.524589   -75.781416   -75.781416    1.2568271 
  217000     649.2707      -74.525   -75.783873   -75.783873    1.2588724 
  218000    652.34576   -74.499688   -75.764522   -75.764522    1.2648346 
  219000    654.57162   -74.482375   -75.751526   -75.751526    1.2691503 
  220000    662.05086   -74.474826   -75.758478   -75.758478    1.2836518 
  221000    662.75746   -74.459861   -75.744883   -75.744883    1.2850219 
  222000    663.76634     -74.4336   -75.720578   -75.720578     1.286978 
  223000    667.45528    -74.44894   -75.743071   -75.743071    1.2941305 
  224000    668.59232   -74.458035    -75.75437    -75.75437    1.2963351 
  225000     675.3235   -74.468057   -75.777443   -75.777443    1.3093862 
  226000    677.46669   -74.473615   -75.787157   -75.787157    1.3135416 
  227000    682.09418   -74.479772   -75.802286   -75.802286    1.3225139 
  228000    684.17402   -74.464612   -75.791158   -75.791158    1.3265465 
  229000    689.38115   -74.443965   -75.780608   -75.780608    1.3366426 
  230000    690.15225   -74.407036   -75.745173   -75.745173    1.3381377 
  231000    692.97163   -74.412182   -75.755787   -75.755787    1.3436042 
  232000    696.55015   -74.416908    -75.76745    -75.76745    1.3505426 
  233000    698.57231   -74.403203   -75.757666   -75.757666    1.3544634 
  234000    698.53323   -74.402243   -75.756631   -75.756631    1.3543876 
  235000    703.69668   -74.362758   -75.727157   -75.727157     1.364399 
  236000    704.99826   -74.402234   -75.769157   -75.769157    1.3669227 
  237000    711.20349   -74.413958   -75.792912   -75.792912     1.378954 
  238000    714.21214   -74.391629   -75.776416   -75.776416    1.3847875 
  239000    719.89183   -74.400981    -75.79678    -75.79678    1.3957998 
  240000    719.61623   -74.394586   -75.789851   -75.789851    1.3952655 
  241000    724.87526   -74.405012   -75.810474   -75.810474    1.4054622 
  242000    727.52872   -74.380342   -75.790949   -75.790949     1.410607 
  243000    729.21312   -74.348954   -75.762827   -75.762827    1.4138729 
  244000     731.0291   -74.322018   -75.739412   -75.739412    1.4173939 
  245000    736.30896    -74.33236   -75.759991   -75.759991    1.4276311 
  246000    736.71247   -74.309281   -75.737694   -75.737694    1.4284134 
  247000    741.17994   -74.293392   -75.730467   -75.730467    1.4370754 
  248000    742.71285   -74.299279   -75.739327   -75.739327    1.4400476 
  249000    747.38724   -74.312887   -75.761998   -75.761998    1.4491107 
  250000    752.25296   -74.307071   -75.765616   -75.765616    1.4585449 
  251000    753.31414   -74.317845   -75.778447   -75.778447    1.4606024 
  252000    758.61759   -74.314015   -75.784901   -75.784901    1.4708853 
  253000    759.74421   -74.318469   -75.791539   -75.791539    1.4730697 
  254000    762.55439    -74.29732   -75.775839   -75.775839    1.4785184 
  255000    766.98473   -74.282873   -75.769982   -75.769982    1.4871084 
  256000    768.24847   -74.279379   -75.768938   -75.768938    1.4895586 
  257000    771.38943   -74.305397   -75.801046   -75.801046    1.4956486 
  258000    774.25614   -74.301111   -75.802318   -75.802318    1.5012069 
  259000    775.55029   -74.250958   -75.754674   -75.754674    1.5037161 
  260000    781.21144   -74.242713   -75.757406   -75.757406    1.5146926 
  261000    785.41794   -74.238196   -75.761045   -75.761045    1.5228486 
  262000    786.71405   -74.243809    -75.76917    -75.76917    1.5253616 
  263000    787.80715   -74.219919     -75.7474     -75.7474     1.527481 
  264000     790.4844   -74.213437   -75.746109   -75.746109    1.5326719 
  265000    795.55498   -74.219089   -75.761593   -75.761593    1.5425033 
  266000    797.76675   -74.227782   -75.774573   -75.774573    1.5467917 
  267000    800.76546   -74.242591   -75.795197   -75.795197    1.5526059 
  268000     803.2686   -74.229346   -75.786805   -75.786805    1.5574592 
  269000    804.62652   -74.228096   -75.788188   -75.788188    1.5600921 
  270000    811.22634   -74.213661   -75.786549   -75.786549    1.5728885 
  271000    812.84791   -74.202116   -75.778149   -75.778149    1.5760326 
  272000    817.13483   -74.179696    -75.76404    -75.76404    1.5843445 
  273000    820.92501    -74.17012   -75.761813   -75.761813    1.5916933 
  274000    821.49156   -74.171849    -75.76464    -75.76464    1.5927918 
  275000    826.98348   -74.178731   -75.782171   -75.782171    1.6034401 
  276000    828.33907   -74.175526   -75.781594   -75.781594    1.6060684 
  277000    829.43921   -74.147768   -75.755969   -75.755969    1.6082015 
  278000    835.44979   -74.182653   -75.802509   -75.802509    1.6198554 
  279000    835.21388   -74.174721   -75.794119   -75.794119     1.619398 
  280000     838.5868   -74.149273   -75.775211   -75.775211    1.6259378 
  281000    841.69476   -74.142667   -75.774631   -75.774631    1.6319638 
  282000    846.35676   -74.136066   -75.777069   -75.777069     1.641003 
  283000    848.79154   -74.133936    -75.77966    -75.77966    1.6457238 
  284000    846.98642    -74.11232   -75.754544   -75.754544    1.6422238 
  285000    851.52573   -74.103046   -75.754071   -75.754071    1.6510251 
  286000    855.01228   -74.116127   -75.773913   -75.773913    1.6577852 
  287000    860.87871   -74.121585   -75.790744   -75.790744    1.6691596 
  288000    861.88205   -74.094484   -75.765589   -75.765589     1.671105 
  289000    867.59417   -74.081014   -75.763194   -75.763194    1.6821802 
  290000    872.54449   -74.085864   -75.777642   -75.777642    1.6917784 
  291000    872.45032   -74.088559   -75.780155   -75.780155    1.6915958 
  292000    874.74479   -74.085113   -75.781157   -75.781157    1.6960446 
  293000    877.59449   -74.086057   -75.787627   -75.787627    1.7015699 
  294000    882.69516   -74.089937   -75.801396   -75.801396    1.7114596 
  295000    885.89662   -74.068155   -75.785822   -75.785822    1.7176669 
  296000    888.58376   -74.082615   -75.805492   -75.805492     1.722877 
  297000    887.63938   -74.067326   -75.788372   -75.788372    1.7210459 
  298000    892.71295    -74.03537   -75.766253   -75.766253    1.7308831 
  299000    898.50718   -74.057933   -75.800051   -75.800051    1.7421175 
  300000    900.01417   -74.052471    -75.79751    -75.79751    1.7450394 
  301000    901.86583   -74.013653   -75.762283   -75.762283    1.7486296 
  302000    904.77086   -74.008796   -75.763058   -75.763058    1.7542622 
  303000    911.42346   -74.027381   -75.794542   -75.794542    1.7671609 
  304000    913.16304   -74.014061   -75.784595   -75.784595    1.7705338 
  305000    913.75816   -73.993772    -75.76546    -75.76546    1.7716877 
  306000    915.15789   -73.983364   -75.757765   -75.757765    1.7744016 
  307000    918.96266   -73.990252   -75.772031   -75.772031    1.7817787 
  308000    922.65923   -74.003722   -75.792668   -75.792668     1.788946 
  309000     927.9095    -73.99645   -75.795576   -75.795576    1.7991257 
  310000    929.85859      -73.995   -75.797905   -75.797905    1.8029048 
  311000     929.7862   -73.975134   -75.777898   -75.777898    1.8027645 
  312000    933.83729   -73.959179   -75.769798   -75.769798    1.8106192 
  313000     940.1559   -73.974904   -75.797774   -75.797774    1.8228703 
  314000    943.14909   -73.932524   -75.761198   -75.761198    1.8286738 
  315000    941.71204   -73.935071   -75.760959   -75.760959    1.8258875 
  316000    946.02399   -73.934485   -75.768733   -75.768733     1.834248 
  317000    949.36739   -73.955293   -75.796023   -75.796023    1.8407305 
  318000    953.11879    -73.96097   -75.808974   -75.808974    1.8480041 
  319000    954.72419   -73.933945   -75.785061   -75.785061    1.8511168 
  320000    959.50974   -73.912238   -75.772634   -75.772634    1.8603955 
  321000     961.7342   -73.928543   -75.793252   -75.793252    1.8647085 
  322000    967.59293    -73.91804   -75.794108   -75.794108     1.876068 
  323000    968.21205   -73.890638   -75.767906   -75.767906    1.8772684 
  324000    971.76501   -73.862202    -75.74636    -75.74636    1.8841573 
  325000    973.60362   -73.865515   -75.753237   -75.753237    1.8877222 
  326000    978.47963   -73.866831   -75.764008   -75.764008    1.8971763 
  327000     982.1126   -73.894101   -75.798321   -75.798321    1.9042203 
  328000    984.30492   -73.878359    -75.78683    -75.78683    1.9084709 
  329000    986.56071   -73.888245   -75.801089   -75.801089    1.9128447 
  330000    988.87057   -73.873935   -75.791258   -75.791258    1.9173233 
  331000     993.6551   -73.864598   -75.791198   -75.791198       1.9266 
  332000    996.73506   -73.850832   -75.783404   -75.783404    1.9325718 
  333000    998.88967    -73.84597    -75.78272    -75.78272    1.9367494 
  334000    1002.6508   -73.865725   -75.809767   -75.809767    1.9440419 
  335000    1005.2067   -73.854334   -75.803332   -75.803332    1.9489974 
  336000    1008.8318   -73.826965   -75.782991   -75.782991    1.9560262 
  337000    1011.3594   -73.818063    -75.77899    -75.77899     1.960927 
  338000    1012.9586   -73.813666   -75.777694   -75.777694    1.9640276 
  339000    1015.4684   -73.802317   -75.771211   -75.771211    1.9688939 
  340000    1019.6496   -73.789375   -75.766376   -75.766376    1.9770009 
  341000    1024.5882   -73.784635   -75.771212   -75.771212    1.9865764 
  342000    1025.1243   -73.791761   -75.779377   -75.779377    1.9876158 
  343000    1029.5963   -73.773791   -75.770078   -75.770078    1.9962864 
  344000    1033.8338    -73.79777   -75.802272   -75.802272    2.0045026 
  345000    1034.9083   -73.770685   -75.777271   -75.777271     2.006586 
  346000    1036.8705   -73.782843   -75.793234   -75.793234    2.0103906 
  347000     1043.063   -73.776134   -75.798531   -75.798531    2.0223971 
  348000    1043.6947   -73.752936   -75.776558   -75.776558     2.023622 
  349000    1047.4176   -73.734565   -75.765405   -75.765405    2.0308403 
  350000    1050.9646   -73.735545   -75.773263   -75.773263    2.0377176 
  351000    1053.1961   -73.736512   -75.778556   -75.778556    2.0420442 
  352000    1057.2893   -73.735042   -75.785022   -75.785022    2.0499806 
  353000     1061.892   -73.736461   -75.795365   -75.795365    2.0589047 
  354000    1063.1005   -73.733507   -75.794754   -75.794754    2.0612479 
  355000    1065.9384   -73.723837   -75.790587   -75.790587    2.0667502 
  356000     1068.993   -73.735786   -75.808459   -75.808459    2.0726729 
  357000    1068.8648   -73.692419   -75.764843   -75.764843    2.0724242 
  358000    1073.8791   -73.699716   -75.781862   -75.781862    2.0821465 
  359000    1080.9605   -73.698835   -75.794712   -75.794712    2.0958766 
  360000     1081.906   -73.683511   -75.781221   -75.781221      2.09771 
  361000    1081.1485    -73.68708   -75.783321   -75.783321    2.0962412 
  362000    1085.0519    -73.66177   -75.765579   -75.765579    2.1038094 
  363000    1089.8637    -73.66679   -75.779929   -75.779929    2.1131391 
  364000    1091.2199   -73.655963   -75.771732   -75.771732    2.1157687 
  365000    1097.4045   -73.664858   -75.792618   -75.792618      2.12776 
  366000    1096.9984   -73.640261   -75.767234   -75.767234    2.1269727 
  367000    1101.1099   -73.618229   -75.753174   -75.753174    2.1349444 
  368000    1104.4001   -73.622184   -75.763508   -75.763508    2.1413238 
  369000    1106.8491   -73.634826   -75.780898   -75.780898    2.1460721 
  370000    1109.5242   -73.633545   -75.784804   -75.784804    2.1512588 
  371000    1112.6769   -73.647985   -75.805357   -75.805357    2.1573717 
  372000     1116.809   -73.636619   -75.802002   -75.802002    2.1653835 
  373000    1116.2672   -73.636859   -75.801192   -75.801192     2.164333 
  374000    1121.3112   -73.607827    -75.78194    -75.78194    2.1741127 
  375000    1127.1111   -73.592156   -75.777514   -75.777514    2.1853581 
  376000    1127.0119   -73.621418   -75.806584   -75.806584    2.1851659 
  377000    1129.5967   -73.624517   -75.814695   -75.814695    2.1901776 
  378000    1133.6234   -73.596607   -75.794592   -75.794592    2.1979848 
  379000    1135.7098   -73.576808   -75.778838   -75.778838    2.2020301 
  380000    1139.3339   -73.553668   -75.762725   -75.762725    2.2090569 
  381000    1142.8692   -73.571301   -75.787212   -75.787212    2.2159116 
  382000    1144.7177   -73.567929   -75.787425   -75.787425    2.2194957 
  383000    1149.0963   -73.535147   -75.763132   -75.763132    2.2279853 
  384000    1153.5048   -73.555404   -75.791937   -75.791937    2.2365329 
  385000    1155.4676   -73.553427   -75.793765   -75.793765    2.2403386 
  386000    1158.8664   -73.550317   -75.797246   -75.797246    2.2469286 
  387000    1160.1129   -73.565838   -75.815183   -75.815183    2.2493454 
  388000    1164.6088   -73.547299   -75.805361   -75.805361    2.2580625 
  389000    1167.1175   -73.536703    -75.79963    -75.79963    2.2629267 
  390000    1169.3855   -73.523259   -75.790583   -75.790583    2.2673241 
  391000     1173.507   -73.490513   -75.765828   -75.765828    2.2753152 
  392000    1176.5687   -73.472902   -75.754154   -75.754154    2.2812515 
  393000    1179.5143   -73.488998   -75.775961   -75.775961    2.2869629 
  394000    1183.0745   -73.512481   -75.806347   -75.806347    2.2938658 
  395000      1184.68   -73.503825   -75.800803   -75.800803    2.2969786 
  396000    1188.9924   -73.491213   -75.796553   -75.796553      2.30534 
  397000    1193.2838   -73.501855   -75.815515   -75.815515    2.3136605 
  398000    1191.7534   -73.471667    -75.78236    -75.78236    2.3106932 
  399000    1196.2741   -73.468098   -75.787556   -75.787556    2.3194584 
  400000    1199.6333   -73.481916   -75.807887   -75.807887    2.3259717 
  401000    1202.2621   -73.463273   -75.794342   -75.794342    2.3310686 
  402000    1205.8096   -73.460172   -75.798119   -75.798119    2.3379469 
  403000    1206.4174   -73.440718   -75.779843   -75.779843    2.3391253 
  404000    1212.7557   -73.417704   -75.769119   -75.769119    2.3514146 
  405000    1214.3072   -73.420551   -75.774974   -75.774974    2.3544228 
  406000    1218.1569   -73.421451   -75.783338   -75.783338    2.3618871 
  407000     1218.874    -73.42744   -75.790718   -75.790718    2.3632774 
  408000    1222.3636   -73.403817   -75.773861   -75.773861    2.3700434 
  409000    1226.8665   -73.382071   -75.760845   -75.760845    2.3787741 
  410000    1230.4071   -73.373082   -75.758721   -75.758721    2.3856391 
  411000    1233.1349   -73.067611   -75.458539   -75.458539    2.3909278 
  412000    1183.2749    -76.08629   -78.380545   -78.380545    2.2942543 
  413000    1258.0734   -76.007163   -78.446445   -78.446445    2.4392813 
  414000    1264.0336   -75.997144   -78.447981   -78.447981    2.4508375 
  415000    1221.2566   -76.360434   -78.728331   -78.728331     2.367897 
  416000    1281.4961   -76.035585    -78.52028    -78.52028    2.4846955 
  417000    1268.8171   -75.364152   -77.824265   -77.824265    2.4601122 
  418000     1268.471   -76.007893   -78.467334   -78.467334    2.4594413 
  419000    1246.5376   -76.401432   -78.818346   -78.818346    2.4169144 
  420000    1238.6279   -76.564596   -78.966175   -78.966175    2.4015783 
  421000    1275.4114   -75.847537   -78.320435   -78.320435    2.4728979 
  422000     1317.525   -75.901776   -78.456328   -78.456328     2.554552 
  423000    1222.1982   -76.489241   -78.858964   -78.858964    2.3697228 
  424000    1306.0635   -76.594503   -79.126832   -79.126832    2.5323294 
  425000    1275.1936    -76.10709   -78.579566   -78.579566    2.4724756 
  426000    1265.9264   -76.326421   -78.780928   -78.780928    2.4545074 
  427000    1304.4504   -76.549241   -79.078443   -79.078443    2.5292017 
  428000    1262.8251    -76.02772   -78.476214   -78.476214    2.4484943 
  429000    1255.7411   -76.258015   -78.692774   -78.692774    2.4347592 
  430000    1296.6775   -77.078527   -79.592658   -79.592658    2.5141308 
  431000    1317.5538   -76.576371   -79.130979   -79.130979     2.554608 
  432000    1272.7998   -76.422959   -78.890794   -78.890794    2.4678344 
  433000    1265.1577    -76.46931   -78.922327   -78.922327     2.453017 
  434000    1263.4453   -76.541141   -78.990838   -78.990838    2.4496968 
  435000    1330.4607   -76.736329   -79.315962   -79.315962    2.5796331 
  436000    1305.3781   -76.901723   -79.432723   -79.432723    2.5310004 
  437000    1283.7201    -76.35253   -78.841537   -78.841537    2.4890077 
  438000    1310.0957   -76.659005   -79.199152   -79.199152    2.5401475 
  439000    1334.6032   -76.532105    -79.11977    -79.11977    2.5876651 
  440000    1311.3952   -76.987923    -79.53059    -79.53059     2.542667 
  441000    1297.1021   -76.919795   -79.434749   -79.434749    2.5149541 
  442000    1317.6474   -76.738782   -79.293571   -79.293571    2.5547894 
  443000     1334.511   -76.378156   -78.965643   -78.965643    2.5874864 
  444000    1310.5459   -76.880725   -79.421746   -79.421746    2.5410203 
  445000    1322.1808    -76.85794   -79.421519   -79.421519    2.5635792 
  446000    1355.5434   -76.548131   -79.176397   -79.176397     2.628266 
  447000    1290.3008   -76.718657   -79.220424   -79.220424     2.501767 
  448000    1342.1413   -76.702986   -79.305266   -79.305266    2.6022806 
  449000    1346.8709   -77.025685   -79.637136   -79.637136    2.6114509 
  450000    1365.7612   -76.667279   -79.315357   -79.315357    2.6480775 
  451000    1354.7257   -76.738933   -79.365614   -79.365614    2.6266806 
  452000    1346.3162   -76.797086   -79.407461   -79.407461    2.6103754 
  453000    1360.3531   -76.829681   -79.467272   -79.467272    2.6375916 
  454000    1364.8846   -77.088139   -79.734517   -79.734517    2.6463778 
  455000    1358.5551   -76.563956   -79.198062   -79.198062    2.6341054 
  456000    1390.3699   -76.885624   -79.581415   -79.581415    2.6957913 
  457000    1371.6628   -76.742121   -79.401641   -79.401641    2.6595201 
  458000    1386.1497    -76.86934   -79.556949   -79.556949    2.6876087 
  459000    1390.2168   -77.083765    -79.77926    -79.77926    2.6954944 
  460000    1399.6419   -76.851684   -79.565452   -79.565452    2.7137687 
  461000    1379.9024    -76.82411   -79.499606   -79.499606    2.6754958 
  462000    1400.6817   -76.993117   -79.708902   -79.708902    2.7157849 
  463000    1367.2858    -77.06412   -79.715154   -79.715154    2.6510335 
  464000    1401.4432   -76.828102   -79.545363   -79.545363    2.7172612 
  465000    1378.3523   -76.917033   -79.589523   -79.589523    2.6724902 
  466000    1413.9241   -76.974834   -79.716294   -79.716294    2.7414604 
  467000    1398.4314   -77.024925   -79.736347   -79.736347    2.7114217 
  468000    1404.5191   -76.979317   -79.702542   -79.702542    2.7232251 
  469000    1402.7535   -76.872398     -79.5922     -79.5922    2.7198017 
  470000    1409.0218   -77.024066   -79.756022   -79.756022    2.7319555 
  471000    1418.7851   -76.811566   -79.562451   -79.562451    2.7508855 
  472000    1404.8617   -76.994281    -79.71817    -79.71817    2.7238895 
  473000    1410.2844     -76.8727   -79.607103   -79.607103    2.7344035 
  474000    1419.0569   -76.847118   -79.598531   -79.598531    2.7514126 
  475000    1412.7615   -77.039815   -79.779022   -79.779022    2.7392064 
  476000    1424.6406   -77.029063   -79.791302   -79.791302    2.7622388 
  477000    1416.6877    -76.99715   -79.743968   -79.743968    2.7468189 
  478000    1434.4577   -77.040534   -79.821807   -79.821807    2.7812731 
  479000    1444.6073   -77.125153   -79.926105   -79.926105    2.8009521 
  480000    1447.1487   -77.027545   -79.833425   -79.833425    2.8058799 
  481000    1457.0449   -77.116094   -79.941161   -79.941161    2.8250676 
  482000    1442.9569   -77.057333   -79.855086   -79.855086    2.7977523 
  483000    1461.0108   -76.935269   -79.768026   -79.768026     2.832757 
  484000    1439.1283   -77.139315   -79.929644   -79.929644    2.7903289 
  485000    1453.7104   -77.100374   -79.918976   -79.918976    2.8186023 
  486000    1479.5924   -77.087379   -79.956164   -79.956164    2.8687849 
  487000    1497.3121   -77.008603   -79.911745   -79.911745    2.9031417 
  488000    1453.6463   -76.976982    -79.79546    -79.79546    2.8184781 
  489000    1469.3163    -77.14279    -79.99165    -79.99165    2.8488605 
  490000    1472.7235   -77.159648   -80.015115   -80.015115    2.8554667 
  491000    1477.0587   -77.064278    -79.92815    -79.92815    2.8638723 
  492000     1472.487   -77.039897   -79.894906   -79.894906    2.8550082 
  493000    1461.2509   -77.209105   -80.042327   -80.042327    2.8332225 
  494000    1498.5055   -76.998637   -79.904093   -79.904093    2.9054557 
  495000    1486.8456   -77.091824   -79.974672   -79.974672    2.8828482 
  496000    1481.9345   -77.033424    -79.90675    -79.90675     2.873326 
  497000     1490.296   -77.138297   -80.027835   -80.027835    2.8895381 
  498000    1488.8743   -77.124051   -80.010832   -80.010832    2.8867815 
  499000    1498.1268   -77.083738   -79.988459   -79.988459    2.9047214 
  500000     1492.199   -77.129674   -80.022901   -80.022901    2.8932279 
  501000     1503.979   -76.979302    -79.89537    -79.89537    2.9160682 
  502000    1517.0269   -77.062786   -80.004153   -80.004153    2.9413667 
  503000    1505.7777    -77.06398   -79.983535   -79.983535    2.9195556 
  504000    1512.3002   -76.996953   -79.929155   -79.929155    2.9322021 
  505000    1510.3189   -77.146674   -80.075034   -80.075034    2.9283607 
  506000    1512.2666    -77.02429   -79.956427   -79.956427    2.9321369 
  507000    1519.2286    -77.06363   -80.009266   -80.009266    2.9456356 
  508000    1521.4991   -77.150829   -80.100867   -80.100867     2.950038 
  509000    1529.0533   -76.912658   -79.877343   -79.877343    2.9646848 
  510000    1525.5949   -76.968166   -79.926145   -79.926145    2.9579792 
  511000    1542.8841   -77.010903   -80.002405   -80.002405    2.9915013 
  512000    1533.8429   -77.035398    -80.00937    -80.00937    2.9739714 
  513000    1545.1741   -77.016595   -80.012536   -80.012536    2.9959414 
  514000    1540.2755   -76.858096   -79.844539   -79.844539    2.9864436 
  515000    1551.8137   -77.041467   -80.050282   -80.050282    3.0088149 
  516000     1558.813   -77.115516   -80.137902   -80.137902    3.0223859 
  517000     1549.837   -77.071079   -80.076062   -80.076062    3.0049824 
  518000    1547.8384   -77.065578   -80.066685   -80.066685    3.0011073 
  519000     1553.881   -76.994939   -80.007763   -80.007763    3.0128233 
  520000    1560.9093   -76.999974   -80.026425   -80.026425    3.0264504 
  521000    1569.4993   -77.064206   -80.107312   -80.107312    3.0431056 
  522000    1554.1349   -77.011593   -80.024908   -80.024908    3.0133155 
  523000    1574.4371   -76.961028   -80.013708   -80.013708    3.0526794 
  524000    1564.7727   -77.098975   -80.132916   -80.132916    3.0339413 
  525000    1586.3246   -77.054999   -80.130727   -80.130727    3.0757282 
  526000    1572.6443   -77.090818   -80.140021   -80.140021    3.0492034 
  527000    1574.2904   -76.914487   -79.966882   -79.966882     3.052395 
  528000     1593.465   -76.979059   -80.068631   -80.068631    3.0895727 
  529000    1583.7327   -77.051843   -80.122546   -80.122546    3.0707029 
  530000    1585.1564   -77.100442   -80.173906   -80.173906    3.0734632 
  531000      1599.74   -77.076542   -80.178282   -80.178282    3.1017393 
  532000    1602.4302   -76.964295   -80.071251   -80.071251    3.1069554 
  533000    1593.4297   -76.975726    -80.06523    -80.06523    3.0895043 
  534000    1615.6593   -77.044681   -80.177286   -80.177286    3.1326053 
  535000    1587.6434   -77.036134   -80.114419   -80.114419    3.0782852 
  536000    1604.6557   -76.906902   -80.018173   -80.018173    3.1112704 
  537000    1605.8171   -76.968917    -80.08244    -80.08244    3.1135222 
  538000    1610.0822   -76.930054   -80.051846   -80.051846    3.1217919 
  539000    1621.2461   -76.997353   -80.140791   -80.140791    3.1434376 
  540000    1626.6464   -77.083898   -80.237807   -80.237807    3.1539082 
  541000    1620.0205   -76.909746   -80.050807   -80.050807    3.1410612 
  542000    1624.6341   -76.968576   -80.118583   -80.118583    3.1500066 
  543000      1633.53   -77.004546   -80.171801   -80.171801    3.1672549 
  544000    1632.7477    -76.98284   -80.148578   -80.148578     3.165738 
  545000    1639.1738   -77.032444   -80.210642   -80.210642    3.1781977 
  546000    1625.8276   -77.001964   -80.154285   -80.154285    3.1523207 
  547000    1643.0165   -77.006647   -80.192296   -80.192296    3.1856482 
  548000    1642.9901   -76.957049   -80.142646   -80.142646     3.185597 
  549000    1644.3102   -76.981438   -80.169595   -80.169595    3.1881567 
  550000    1650.2364   -76.925513    -80.12516    -80.12516     3.199647 
  551000    1666.8953    -76.95587   -80.187817   -80.187817    3.2319469 
  552000    1653.6712   -76.985933    -80.19224    -80.19224    3.2063067 
  553000     1665.634   -76.987795   -80.217297   -80.217297    3.2295015 
  554000    1663.9432    -77.00209   -80.228313   -80.228313    3.2262231 
  555000    1663.8888    -76.93859   -80.164707   -80.164707    3.2261176 
  556000    1671.5846   -76.939216   -80.180255   -80.180255     3.241039 
  557000    1675.6413   -76.878782   -80.127686   -80.127686    3.2489045 
  558000    1668.7546    -76.93783   -80.173382   -80.173382     3.235552 
  559000    1675.9153   -76.827569   -80.077005   -80.077005    3.2494359 
  560000    1686.3788   -76.914157    -80.18388    -80.18388    3.2697234 
  561000    1693.0778   -76.947506   -80.230218   -80.230218    3.2827122 
  562000    1680.4894    -76.89998   -80.158284   -80.158284    3.2583045 
  563000    1687.1057   -76.925185   -80.196318   -80.196318    3.2711329 
  564000      1683.16   -76.823105   -80.086587   -80.086587    3.2634825 
  565000      1692.66   -76.909263   -80.191165   -80.191165    3.2819021 
  566000    1698.8807   -76.866802   -80.160765   -80.160765    3.2939634 
  567000    1706.1698    -76.86882   -80.176917   -80.176917    3.3080964 
  568000    1704.4325    -76.85158   -80.156308   -80.156308     3.304728 
  569000    1704.6048   -76.896735   -80.201797   -80.201797    3.3050619 
  570000    1711.7822    -76.84318   -80.162158   -80.162158    3.3189783 
  571000    1717.0683   -76.913905   -80.243133   -80.243133    3.3292275 
  572000    1724.7078   -76.949228   -80.293268   -80.293268    3.3440397 
  573000    1725.6227    -76.86306   -80.208874   -80.208874    3.3458136 
  574000    1724.5982   -76.908455   -80.252282   -80.252282    3.3438272 
  575000    1724.2389    -76.89985    -80.24298    -80.24298    3.3431305 
  576000    1725.3278   -76.844504   -80.189745   -80.189745    3.3452417 
  577000    1729.8622   -76.857938   -80.211972   -80.211972    3.3540336 
  578000    1738.2511    -76.84594   -80.216239   -80.216239    3.3702989 
  579000    1737.5082   -76.822496   -80.191355   -80.191355    3.3688584 
  580000    1732.0698   -76.827405   -80.185719   -80.185719    3.3583138 
  581000     1744.279   -76.867082   -80.249068   -80.249068    3.3819864 
  582000    1736.7075   -76.872418   -80.239724   -80.239724     3.367306 
  583000    1748.1849   -76.882703   -80.272263   -80.272263    3.3895595 
  584000      1750.45   -76.799028    -80.19298    -80.19298    3.3939514 
  585000    1750.3863   -76.886858   -80.280685   -80.280685    3.3938278 
  586000    1762.8822   -76.790122   -80.208179   -80.208179    3.4180562 
  587000    1761.8461   -76.825766   -80.241813   -80.241813    3.4160472 
  588000    1769.8123   -76.813202   -80.244695   -80.244695     3.431493 
  589000     1766.261   -76.797206   -80.221813   -80.221813    3.4246073 
  590000    1769.0193   -76.846136   -80.276091   -80.276091    3.4299554 
  591000     1772.207   -76.856631   -80.292767   -80.292767     3.436136 
  592000    1767.2666   -76.804134   -80.230691   -80.230691     3.426557 
  593000    1777.6295   -76.844209   -80.290859   -80.290859    3.4466497 
  594000    1782.2739   -76.797348   -80.253003   -80.253003    3.4556547 
  595000    1785.3141   -76.778811   -80.240361   -80.240361    3.4615494 
  596000    1787.8922   -76.824171   -80.290719   -80.290719    3.4665481 
  597000    1783.5548   -76.774105   -80.232244   -80.232244    3.4581382 
  598000    1793.1603    -76.78117   -80.257932   -80.257932    3.4767623 
  599000    1793.6202   -76.775734   -80.253388   -80.253388    3.4776541 
  600000    1802.4946   -76.780124   -80.274985   -80.274985    3.4948608 
  601000    1808.2714   -76.750834   -80.256895   -80.256895    3.5060613 
  602000    1805.8033   -76.762362   -80.263638   -80.263638     3.501276 
  603000    1800.0729   -76.765143   -80.255308   -80.255308    3.4901653 
  604000    1813.3878   -76.724815   -80.240797   -80.240797    3.5159816 
  605000     1818.986   -76.690836   -80.217672   -80.217672    3.5268359 
  606000    1821.1374   -76.723129   -80.254136   -80.254136    3.5310072 
  607000     1825.713   -76.761698   -80.301577   -80.301577     3.539879 
  608000    1826.0374   -76.749924   -80.290432   -80.290432     3.540508 
  609000    1824.7321   -76.742465   -80.280442   -80.280442    3.5379771 
  610000    1828.8103    -76.70853   -80.254414   -80.254414    3.5458842 
  611000    1828.1463    -76.74962   -80.294217   -80.294217    3.5445969 
  612000     1835.884   -76.733642   -80.293241   -80.293241    3.5595994 
  613000    1836.4727   -76.697505   -80.258246   -80.258246    3.5607409 
  614000    1845.0659   -76.711179   -80.288581   -80.288581    3.5774022 
  615000    1844.1922    -76.65599   -80.231698   -80.231698    3.5757083 
  616000    1844.6052   -76.635032   -80.211541   -80.211541    3.5765091 
  617000    1854.4569   -76.676434   -80.272045   -80.272045    3.5956106 
  618000    1861.9652    -76.66074   -80.270908   -80.270908    3.6101685 
  619000    1850.8224   -76.646073   -80.234636   -80.234636    3.5885637 
  620000    1859.0818   -76.638273   -80.242851   -80.242851    3.6045778 
  621000     1856.912   -76.611776   -80.212147   -80.212147    3.6003707 
  622000    1867.0682   -76.622026   -80.242088   -80.242088    3.6200625 
  623000     1872.108   -76.621162   -80.250996   -80.250996    3.6298343 
  624000    1873.6729   -76.606961   -80.239829   -80.239829    3.6328685 
  625000    1870.1841   -76.576103   -80.202207   -80.202207    3.6261041 
  626000    1878.4441   -76.654511    -80.29663    -80.29663    3.6421194 
  627000    1885.1975   -76.620117   -80.275331   -80.275331    3.6552135 
  628000    1887.3554   -76.634571   -80.293968   -80.293968    3.6593975 
  629000     1887.412   -76.649007   -80.308514   -80.308514    3.6595072 
  630000    1893.3799   -76.637811    -80.30889    -80.30889    3.6710784 
  631000    1895.4373   -76.637622   -80.312689   -80.312689    3.6750674 
  632000    1899.6052   -76.646533   -80.329682   -80.329682    3.6831486 
  633000    1897.5129   -76.612015   -80.291107   -80.291107    3.6790919 
  634000    1902.6085   -76.625718    -80.31469    -80.31469    3.6889717 
  635000    1900.7114   -76.634131   -80.319424   -80.319424    3.6852934 
  636000    1903.2473   -76.595652   -80.285862   -80.285862    3.6902103 
  637000    1912.4922   -76.603674   -80.311809   -80.311809    3.7081353 
  638000    1918.6853   -76.542745   -80.262888   -80.262888     3.720143 
  639000    1919.2586   -76.575435    -80.29669    -80.29669    3.7212546 
  640000    1920.7566   -76.578283   -80.302442   -80.302442    3.7241591 
  641000    1927.3312   -76.597046   -80.333952   -80.333952    3.7369066 
  642000    1931.9942   -76.572588   -80.318536   -80.318536    3.7459477 
  643000    1928.6625   -76.577465   -80.316953   -80.316953     3.739488 
  644000    1928.5336   -76.516408   -80.255646   -80.255646     3.739238 
  645000    1935.1675    -76.56247    -80.31457    -80.31457    3.7521004 
  646000    1942.9841   -76.543814    -80.31107    -80.31107     3.767256 
  647000     1942.492   -76.541419   -80.307721   -80.307721    3.7663019 
  648000    1943.1651   -76.518351   -80.285958   -80.285958     3.767607 
  649000    1942.3356   -76.546935   -80.312934   -80.312934    3.7659988 
  650000    1949.9614   -76.552499   -80.333283   -80.333283    3.7807845 
  651000    1959.5418   -76.539423   -80.338783   -80.338783    3.7993599 
  652000     1960.896   -76.524162   -80.326148   -80.326148    3.8019856 
  653000    1959.7802   -76.537791   -80.337613   -80.337613    3.7998221 
  654000    1965.0659   -76.534413   -80.344483   -80.344483    3.8100705 
  655000    1968.4835   -76.498267   -80.314964   -80.314964    3.8166969 
  656000    1967.5979   -76.506875   -80.321855   -80.321855    3.8149799 
  657000    1970.2282   -76.442538   -80.262618   -80.262618    3.8200798 
  658000    1975.5641    -76.47847   -80.308895   -80.308895    3.8304256 
  659000    1980.2218   -76.484115   -80.323571   -80.323571    3.8394564 
  660000    1974.2583   -76.464715   -80.292608   -80.292608    3.8278937 
  661000    1981.3794   -76.466625   -80.308326   -80.308326    3.8417009 
  662000    1983.4698   -76.468697   -80.314451   -80.314451    3.8457539 
  663000    1989.0623   -76.443688   -80.300285   -80.300285    3.8565971 
  664000    1991.9078   -76.476415    -80.33853    -80.33853    3.8621144 
  665000    1994.4323    -76.45872   -80.325729   -80.325729    3.8670091 
  666000    1997.8458   -76.467647   -80.341274   -80.341274    3.8736276 
  667000    2003.5796   -76.462317   -80.347062   -80.347062    3.8847448 
  668000    2002.1688   -76.472211    -80.35422    -80.35422    3.8820095 
  669000    2004.5439   -76.446977   -80.333592   -80.333592    3.8866145 
  670000    2014.1322   -76.471504   -80.376709   -80.376709    3.9052052 
  671000    2012.3608   -76.422407   -80.324177   -80.324177    3.9017707 
  672000    2017.4301   -76.409353   -80.320953   -80.320953    3.9115996 
  673000    2019.2087    -76.40031   -80.315358   -80.315358    3.9150481 
  674000    2021.9034    -76.38951   -80.309783   -80.309783    3.9202729 
  675000    2022.2636    -76.44527   -80.366241   -80.366241    3.9209713 
  676000    2028.3434   -76.404054   -80.336813   -80.336813    3.9327595 
  677000    2030.0903   -76.417534    -80.35368    -80.35368    3.9361464 
  678000    2035.6211   -76.408107   -80.354977   -80.354977    3.9468701 
  679000     2040.004   -76.394908   -80.350276   -80.350276    3.9553682 
  680000    2038.2569   -76.375836   -80.327816   -80.327816    3.9519807 
  681000    2042.2961   -76.335823   -80.295635   -80.295635    3.9598124 
  682000    2044.8995   -76.331906   -80.296766   -80.296766      3.96486 
  683000    2046.1623   -76.348395   -80.315704   -80.315704    3.9673086 
  684000     2050.771   -76.354023   -80.330268   -80.330268    3.9762443 
  685000    2049.5556   -76.363226   -80.337113   -80.337113    3.9738877 
  686000    2058.1761   -76.353352   -80.343955   -80.343955    3.9906021 
  687000    2062.1448   -76.335659   -80.333956   -80.333956     3.998297 
  688000    2072.7934   -76.325949   -80.344892   -80.344892    4.0189436 
  689000     2067.886   -76.317862   -80.327291   -80.327291    4.0094287 
  690000     2066.313   -76.321642   -80.328021   -80.328021    4.0063787 
  691000    2072.4553   -76.349063   -80.367351   -80.367351    4.0182881 
  692000    2076.5418    -76.32479   -80.351001   -80.351001    4.0262114 
  693000    2078.6016   -76.289082   -80.319287   -80.319287    4.0302051 
  694000    2080.3243   -76.290119   -80.323665   -80.323665    4.0335454 
  695000    2085.5483   -76.304907   -80.348581   -80.348581    4.0436742 
  696000    2086.0191   -76.284881   -80.329468   -80.329468     4.044587 
  697000    2090.5352   -76.274106    -80.32745    -80.32745    4.0533432 
  698000    2093.4474   -76.265564   -80.324554   -80.324554    4.0589897 
  699000      2094.42   -76.205523   -80.266398   -80.266398    4.0608756 
  700000    2101.6707   -76.225651   -80.300585   -80.300585    4.0749338 
  701000    2102.5617   -76.256467   -80.333128   -80.333128    4.0766615 
  702000    2103.1707   -76.265155   -80.342997   -80.342997    4.0778422 
  703000    2105.6686   -76.276389   -80.359074   -80.359074    4.0826855 
  704000    2108.7438   -76.237324   -80.325972   -80.325972    4.0886479 
  705000    2116.2789   -76.208861   -80.312119   -80.312119    4.1032578 
  706000    2121.2019   -76.222812   -80.335615   -80.335615     4.112803 
  707000    2121.7108   -76.240476   -80.354265   -80.354265    4.1137896 
  708000    2122.5886   -76.257067   -80.372559   -80.372559    4.1154917 
  709000    2129.4215   -76.250917   -80.379657   -80.379657    4.1287399 
  710000    2128.0352   -76.201591   -80.327643   -80.327643     4.126052 
  711000    2135.1217   -76.217429   -80.357221   -80.357221     4.139792 
  712000    2138.4704   -76.206454   -80.352739   -80.352739    4.1462849 
  713000    2142.1617   -76.217714   -80.371156   -80.371156    4.1534421 
  714000    2140.4694   -76.173403   -80.323564   -80.323564    4.1501607 
  715000    2144.8805   -76.203648   -80.362362   -80.362362    4.1587135 
  716000     2147.371   -76.146081   -80.309623   -80.309623    4.1635423 
  717000    2148.5848    -76.17579   -80.341686   -80.341686    4.1658957 
  718000    2157.6735   -76.134115   -80.317633   -80.317633    4.1835179 
  719000    2153.8806    -76.10862   -80.284783   -80.284783    4.1761638 
  720000    2161.8193   -76.119871   -80.311427   -80.311427    4.1915561 
  721000    2164.2121   -76.096702   -80.292897   -80.292897    4.1961955 
  722000    2165.8259   -76.136603   -80.335928   -80.335928    4.1993246 
  723000    2166.1998   -76.100681    -80.30073    -80.30073    4.2000495 
  724000    2173.7906   -76.122737   -80.337504   -80.337504    4.2147672 
  725000    2174.5337   -76.123385   -80.339594   -80.339594    4.2162081 
  726000    2178.6394   -76.138089   -80.362258   -80.362258    4.2241686 
  727000    2178.4885    -76.11603   -80.339906   -80.339906     4.223876 
  728000    2182.9158   -76.125644   -80.358104   -80.358104    4.2324601 
  729000    2184.4364   -76.119673   -80.355082   -80.355082    4.2354084 
  730000      2191.31   -76.143139   -80.391875   -80.391875    4.2487357 
  731000    2193.9405   -76.101603   -80.355439   -80.355439    4.2538361 
  732000    2194.9105   -76.082717   -80.338433   -80.338433    4.2557168 
  733000    2201.4013   -76.096522   -80.364824   -80.364824    4.2683018 
  734000    2199.2903   -76.057331   -80.321539   -80.321539    4.2642087 
  735000    2210.6707   -76.014143   -80.300417   -80.300417    4.2862742 
  736000    2203.6635   -75.994996   -80.267684   -80.267684    4.2726879 
  737000    2212.5915   -76.027751   -80.317749   -80.317749    4.2899984 
  738000    2215.5068    -76.02791   -80.323561   -80.323561    4.2956509 
  739000    2214.2796   -76.061941   -80.355212   -80.355212    4.2932716 
  740000    2220.3627   -76.043661   -80.348727   -80.348727    4.3050661 
  741000    2221.4859   -76.041708   -80.348952   -80.348952    4.3072438 
  742000    2224.3861   -76.026199   -80.339066   -80.339066    4.3128671 
  743000    2229.4123   -76.026038    -80.34865    -80.34865    4.3226123 
  744000    2234.3255   -76.031644   -80.363783   -80.363783    4.3321386 
  745000    2240.3016    -76.03204   -80.375765   -80.375765    4.3437256 
  746000    2234.1963     -76.0286   -80.360488   -80.360488    4.3318881 
  747000    2239.2323   -76.016518    -80.35817    -80.35817    4.3416525 
  748000    2246.9248   -76.009407   -80.365974   -80.365974    4.3565675 
  749000    2247.4825   -75.998227   -80.355876   -80.355876    4.3576486 
  750000    2250.0307   -75.982327   -80.344916   -80.344916    4.3625894 
  751000    2248.6427   -75.992099   -80.351997   -80.351997    4.3598982 
  752000    2259.0233   -75.968941   -80.348966   -80.348966    4.3800252 
  753000    2258.0597   -75.934634   -80.312791   -80.312791    4.3781568 
  754000    2262.8071   -75.923317   -80.310679   -80.310679    4.3873615 
  755000    2263.7204   -75.948694   -80.337827   -80.337827    4.3891325 
  756000    2270.6541   -75.944016   -80.346592   -80.346592    4.4025762 
  757000    2274.0287   -75.970755   -80.379874   -80.379874    4.4091192 
  758000    2274.5102   -75.948402   -80.358455   -80.358455    4.4100527 
  759000    2277.2349   -75.938438   -80.353774   -80.353774    4.4153357 
  760000     2278.814   -75.929374   -80.347772   -80.347772    4.4183974 
  761000     2283.079   -75.933668   -80.360335   -80.360335    4.4266668 
  762000     2283.196   -75.903975   -80.330868   -80.330868    4.4268936 
  763000    2291.6687     -75.9087   -80.352021   -80.352021    4.4433215 
  764000    2291.6998   -75.912851   -80.356232   -80.356232    4.4433818 
  765000     2296.758    -75.89084   -80.344029   -80.344029     4.453189 
  766000    2299.2863   -75.858246   -80.316338   -80.316338    4.4580912 
  767000     2299.868   -75.883938   -80.343158   -80.343158    4.4592191 
  768000    2306.4052   -75.876032   -80.347926   -80.347926    4.4718941 
  769000    2306.7742   -75.885082   -80.357691   -80.357691    4.4726095 
  770000    2313.3751   -75.833381   -80.318789   -80.318789     4.485408 
  771000    2311.6347   -75.848628   -80.330662   -80.330662    4.4820336 
  772000    2313.2518   -75.823064   -80.308233   -80.308233     4.485169 
  773000    2319.7307   -75.875859    -80.37359    -80.37359    4.4977308 
  774000    2322.8653   -75.859449   -80.363258   -80.363258    4.5038085 
  775000    2324.5222   -75.873972   -80.380993   -80.380993    4.5070212 
  776000    2327.6587   -75.848636   -80.361738   -80.361738    4.5131024 
  777000    2331.1664   -75.834334   -80.354237   -80.354237    4.5199036 
  778000    2332.3251   -75.851858   -80.374008   -80.374008    4.5221501 
  779000    2338.2629    -75.80362   -80.337283   -80.337283    4.5336631 
  780000    2339.8678   -75.830221   -80.366996   -80.366996    4.5367748 
  781000    2341.7251   -75.817889   -80.358265   -80.358265    4.5403758 
  782000     2345.319   -75.826983   -80.374328   -80.374328    4.5473442 
  783000    2350.5779   -75.825523   -80.383063   -80.383063    4.5575405 
  784000    2351.7371   -75.793517   -80.353305   -80.353305    4.5597881 
  785000    2356.3278   -75.814151    -80.38284    -80.38284    4.5686891 
  786000    2355.0872   -75.791644   -80.357928   -80.357928    4.5662836 
  787000    2360.7347   -75.793556    -80.37079    -80.37079    4.5772336 
  788000    2363.7674     -75.7717   -80.354813   -80.354813    4.5831137 
  789000    2367.7775    -75.75727   -80.348159   -80.348159     4.590889 
  790000     2367.786   -75.752725    -80.34363    -80.34363    4.5909054 
  791000    2373.5761   -75.739465   -80.341596   -80.341596    4.6021318 
  792000    2377.6274   -75.757184   -80.367171   -80.367171     4.609987 
  793000    2378.8189   -75.762706   -80.375003   -80.375003    4.6122972 
  794000    2383.8612   -75.750492   -80.372566   -80.372566    4.6220737 
  795000    2380.0582   -75.736458   -80.351158   -80.351158    4.6147001 
  796000    2387.4779   -75.733946   -80.363032   -80.363032    4.6290862 
  797000    2388.0178   -75.733677    -80.36381    -80.36381    4.6301328 
  798000     2395.948   -75.721802   -80.367311   -80.367311    4.6455089 
  799000    2396.7919   -75.718037   -80.365182   -80.365182    4.6471451 
  800000    2404.9849   -75.690097   -80.353128   -80.353128    4.6630304 
  801000    2400.6102   -75.691046   -80.345594   -80.345594    4.6545484 
  802000    2408.5521   -75.694015   -80.363962   -80.363962    4.6699468 
  803000    2408.1687   -75.687657   -80.356861   -80.356861    4.6692035 
  804000    2412.9704   -75.686346    -80.36486    -80.36486    4.6785136 
  805000    2417.2581   -75.677852   -80.364679   -80.364679     4.686827 
  806000    2418.4869   -75.673435   -80.362645   -80.362645    4.6892095 
  807000    2420.8651   -75.662169    -80.35599    -80.35599    4.6938206 
  808000    2425.5143   -75.645491   -80.348326   -80.348326    4.7028349 
  809000    2425.2834   -75.663635   -80.366022   -80.366022    4.7023872 
  810000    2431.3211   -75.643892   -80.357986   -80.357986    4.7140938 
  811000    2433.5418   -75.637521   -80.355921   -80.355921    4.7183995 
  812000    2434.8262   -75.635444   -80.356333   -80.356333    4.7208897 
  813000    2439.2121   -75.639426    -80.36882    -80.36882    4.7293936 
  814000     2443.456   -75.652114   -80.389736   -80.389736    4.7376221 
  815000    2446.0117   -75.638174   -80.380752   -80.380752    4.7425773 
  816000    2445.2209   -75.628234   -80.369278   -80.369278     4.741044 
  817000    2450.8927   -75.606461   -80.358502   -80.358502    4.7520412 
  818000    2454.8916   -75.583122   -80.342917   -80.342917    4.7597947 
  819000    2454.4983    -75.58595   -80.344982   -80.344982     4.759032 
  820000    2459.8333   -75.595014   -80.364391   -80.364391    4.7693761 
  821000    2464.3162   -75.590891   -80.368959   -80.368959    4.7780681 
  822000     2466.328   -75.589713   -80.371682   -80.371682    4.7819687 
  823000    2469.2087   -75.582884   -80.370438   -80.370438    4.7875541 
  824000    2472.5851   -75.578508   -80.372608   -80.372608    4.7941007 
  825000    2477.6861   -75.558133   -80.362124   -80.362124    4.8039909 
  826000    2478.2901   -75.549185   -80.354347   -80.354347     4.805162 
  827000    2483.3524   -75.545372    -80.36035    -80.36035    4.8149773 
  828000    2486.2759   -75.538862   -80.359508   -80.359508    4.8206458 
  829000    2490.5868   -75.580433   -80.409437   -80.409437    4.8290042 
  830000     2488.783   -75.534089   -80.359596   -80.359596    4.8255068 
  831000    2491.6957   -75.538496    -80.36965    -80.36965    4.8311543 
  832000    2495.0116   -75.546469   -80.384052   -80.384052    4.8375833 
  833000    2498.6597   -75.520433    -80.36509    -80.36509    4.8446568 
  834000    2504.9094   -75.524745   -80.381519   -80.381519    4.8567744 
  835000    2504.6245   -75.481417   -80.337639   -80.337639    4.8562219 
  836000    2507.9356   -75.472639   -80.335281   -80.335281    4.8626418 
  837000    2509.0956   -75.461905   -80.326796   -80.326796    4.8648908 
  838000     2514.211   -75.474656   -80.349465   -80.349465    4.8748092 
  839000    2517.8542    -75.48181   -80.363683   -80.363683     4.881873 
  840000     2521.181   -75.478874   -80.367197   -80.367197    4.8883234 
  841000    2523.2738    -75.46818   -80.360562   -80.360562    4.8923811 
  842000     2526.204   -75.460802   -80.358865   -80.358865    4.8980624 
  843000    2528.0919   -75.490817    -80.39254    -80.39254    4.9017228 
  844000    2532.7026   -75.454334   -80.364997   -80.364997    4.9106626 
  845000    2537.3149   -75.451773   -80.371378   -80.371378    4.9196054 
  846000    2536.3846   -75.442411   -80.360213   -80.360213    4.9178017 
  847000    2541.3893   -75.442536   -80.370041   -80.370041    4.9275053 
  848000    2543.2923   -75.435153   -80.366348   -80.366348     4.931195 
  849000    2547.6722   -75.448378   -80.388065   -80.388065    4.9396871 
  850000    2550.2418    -75.43158    -80.37625    -80.37625    4.9446693 
  851000    2551.0836   -75.416785   -80.363087   -80.363087    4.9463015 
  852000    2553.6074   -75.424055    -80.37525    -80.37525     4.951195 
  853000    2558.5667   -75.426322   -80.387133   -80.387133    4.9608105 
  854000    2564.1935    -75.41785   -80.389571   -80.389571    4.9717204 
  855000    2564.5026    -75.39307    -80.36539    -80.36539    4.9723196 
  856000    2566.5751   -75.384896   -80.361234   -80.361234    4.9763381 
  857000    2573.4639   -75.374502   -80.364197   -80.364197    4.9896947 
  858000    2577.6176   -75.382801   -80.380549   -80.380549    4.9977483 
  859000    2579.1909    -75.36483   -80.365629   -80.365629    5.0007988 
  860000    2578.2652   -75.386153   -80.385157   -80.385157     4.999004 
  861000    2581.1972   -75.370056   -80.374745   -80.374745    5.0046888 
  862000    2588.9433   -75.361313   -80.381021   -80.381021    5.0197077 
  863000    2589.8192   -75.347239   -80.368646   -80.368646    5.0214061 
  864000    2592.5116   -75.336926   -80.363552   -80.363552    5.0266264 
  865000    2596.6925   -75.329606   -80.364339   -80.364339    5.0347328 
  866000    2597.5709   -75.310159   -80.346594   -80.346594    5.0364358 
  867000    2599.1852   -75.309636   -80.349202   -80.349202    5.0395659 
  868000    2603.0468   -75.297912   -80.344965   -80.344965     5.047053 
  869000    2607.7461    -75.27778   -80.333945   -80.333945    5.0561647 
  870000    2610.2136   -75.289557   -80.350506   -80.350506    5.0609487 
  871000     2612.304   -75.282371   -80.347373   -80.347373    5.0650019 
  872000    2615.5891   -75.280459   -80.351831   -80.351831    5.0713714 
  873000    2618.3922   -75.280974    -80.35778    -80.35778    5.0768063 
  874000    2621.8161   -75.286802   -80.370247   -80.370247    5.0834449 
  875000    2625.2211   -75.290002   -80.380049   -80.380049    5.0900468 
  876000     2625.995   -75.287712   -80.379259   -80.379259    5.0915474 
  877000    2632.6762   -75.274902   -80.379404   -80.379404    5.1045016 
  878000    2633.7617   -75.288139   -80.394745   -80.394745    5.1066064 
  879000    2637.8653   -75.278891   -80.393454   -80.393454    5.1145627 
  880000    2639.4589   -75.239727    -80.35738    -80.35738    5.1176525 
  881000    2644.9443   -75.235169   -80.363457   -80.363457    5.1282883 
  882000    2643.7881   -75.212732   -80.338779   -80.338779    5.1260464 
  883000    2649.5324   -75.171252   -80.308436   -80.308436    5.1371842 
  884000    2650.7783   -75.187449   -80.327049   -80.327049    5.1395999 
  885000    2653.2041   -75.186898   -80.331201   -80.331201    5.1443032 
  886000    2656.4664   -75.194879   -80.345507   -80.345507    5.1506286 
  887000    2658.8073   -75.203495   -80.358662   -80.358662    5.1551673 
  888000    2665.4513    -75.21211   -80.380159   -80.380159    5.1680493 
  889000    2670.7452    -75.20927   -80.387584   -80.387584    5.1783136 
  890000    2673.0443   -75.199024   -80.381795   -80.381795    5.1827714 
  891000    2670.8718   -75.206601    -80.38516    -80.38516     5.178559 
  892000    2674.5055   -75.200815   -80.386419   -80.386419    5.1856046 
  893000    2680.2085   -75.168121   -80.364783   -80.364783    5.1966622 
  894000    2682.7821   -75.165318    -80.36697    -80.36697    5.2016521 
  895000    2685.5303   -75.177267   -80.384247   -80.384247    5.2069806 
  896000     2687.589     -75.1467   -80.357672   -80.357672    5.2109721 
  897000    2689.8053   -75.143295   -80.358565   -80.358565    5.2152694 
  898000    2694.5406   -75.116497   -80.340948   -80.340948    5.2244507 
  899000     2695.082   -75.123444   -80.348944   -80.348944    5.2255003 
  900000    2702.5243   -75.101763   -80.341693   -80.341693    5.2399302 
  901000     2701.974   -75.134498   -80.373361   -80.373361    5.2388634 
  902000    2706.4581    -75.10607   -80.353627   -80.353627    5.2475575 
  903000    2709.7616   -75.147044   -80.401006   -80.401006    5.2539626 
  904000    2709.3843   -75.106936   -80.360168   -80.360168    5.2532311 
  905000    2714.9209   -75.113109   -80.377075   -80.377075    5.2639661 
  906000    2718.7096   -75.103388     -80.3747     -80.3747     5.271312 
  907000    2721.7912   -75.108898   -80.386185   -80.386185    5.2772868 
  908000    2724.1763   -75.077557   -80.359469   -80.359469    5.2819114 
  909000    2727.3909    -75.07244   -80.360584   -80.360584    5.2881441 
  910000    2729.5223   -75.085356   -80.377633   -80.377633    5.2922767 
  911000    2733.2846   -75.069218   -80.368789   -80.368789    5.2995714 
  912000    2735.8896   -75.090741   -80.395363   -80.395363    5.3046222 
  913000    2737.8349    -75.06858   -80.376975   -80.376975    5.3083941 
  914000    2740.2417   -75.071429    -80.38449    -80.38449    5.3130605 
  915000    2744.1551   -75.061167   -80.381816   -80.381816    5.3206483 
  916000    2747.6653   -75.038331   -80.365786   -80.365786    5.3274542 
  917000    2750.8761   -75.035059   -80.368739   -80.368739    5.3336797 
  918000    2753.7529   -75.022844   -80.362101   -80.362101    5.3392576 
  919000     2756.905   -75.005311    -80.35068    -80.35068    5.3453691 
  920000    2762.6138   -75.019811   -80.376248   -80.376248    5.3564379 
  921000    2763.8496   -75.032268   -80.391102   -80.391102    5.3588341 
  922000    2766.5928   -75.018762   -80.382914   -80.382914    5.3641528 
  923000    2768.5079   -75.007688   -80.375554   -80.375554    5.3678661 
  924000    2770.2764   -75.011154   -80.382449   -80.382449     5.371295 
  925000    2773.7125     -74.9947   -80.372657   -80.372657    5.3779573 
  926000    2776.6063   -74.974287   -80.357855   -80.357855    5.3835679 
  927000    2779.4814   -74.956406   -80.345548   -80.345548    5.3891424 
  928000    2783.1563   -74.947676   -80.343944   -80.343944    5.3962678 
  929000     2787.537   -74.941351   -80.346112   -80.346112    5.4047615 
  930000    2786.4536   -74.963555   -80.366216   -80.366216     5.402661 
  931000    2790.8679    -74.93845    -80.34967    -80.34967    5.4112199 
  932000    2796.4867   -74.963934   -80.386049   -80.386049    5.4221142 
  933000    2799.6651   -74.947068   -80.375345   -80.375345    5.4282768 
  934000    2803.1486   -74.945827   -80.380858   -80.380858     5.435031 
  935000     2806.937   -74.929988   -80.372364   -80.372364    5.4423762 
  936000    2808.1019   -74.910857   -80.355491   -80.355491    5.4446349 
  937000    2810.7661   -74.926979    -80.37678    -80.37678    5.4498006 
  938000    2814.8964    -74.93313   -80.390939   -80.390939    5.4578087 
  939000    2818.3265   -74.931776   -80.396236   -80.396236    5.4644594 
  940000    2820.1214   -74.913874   -80.381814   -80.381814    5.4679396 
  941000    2822.2339   -74.927462   -80.399497   -80.399497    5.4720354 
  942000    2824.7319   -74.906776   -80.383655   -80.383655    5.4768788 
  943000    2827.5773   -74.885846   -80.368242   -80.368242    5.4823958 
  944000    2828.5202   -74.873217   -80.357441   -80.357441    5.4842239 
  945000    2833.4536   -74.860758   -80.354547   -80.354547    5.4937894 
  946000    2836.7309   -74.878054   -80.378198   -80.378198    5.5001437 
  947000    2842.9392   -74.866744   -80.378925   -80.378925     5.512181 
  948000    2846.5759   -74.868059   -80.387291   -80.387291    5.5192322 
  949000    2845.7013   -74.863193    -80.38073    -80.38073    5.5175364 
  950000    2851.7805   -74.855366   -80.384689   -80.384689    5.5293234 
  951000    2851.7602   -74.835616     -80.3649     -80.3649     5.529284 
  952000     2854.018   -74.844912   -80.378574   -80.378574    5.5336618 
  953000     2859.129   -74.813854   -80.357426   -80.357426    5.5435715 
  954000    2864.8607   -74.820911   -80.375596   -80.375596    5.5546846 
  955000     2866.076   -74.819227   -80.376268   -80.376268     5.557041 
  956000     2869.279   -74.809954   -80.373205   -80.373205    5.5632512 
  957000    2870.5932   -74.830592   -80.396391   -80.396391    5.5657994 
  958000    2871.8877   -74.790156   -80.358465   -80.358465    5.5683093 
  959000    2879.0743   -74.810528   -80.392771   -80.392771    5.5822434 
  960000    2879.3214   -74.781289   -80.364011   -80.364011    5.5827224 
  961000    2884.5279   -74.776696   -80.369513   -80.369513    5.5928173 
  962000    2883.4505    -74.75036   -80.341088   -80.341088    5.5907284 
  963000    2888.3131    -74.75918   -80.359337   -80.359337    5.6001566 
  964000    2891.7461   -74.777899   -80.384712   -80.384712    5.6068127 
  965000    2892.2629    -74.76848   -80.376294   -80.376294    5.6078148 
  966000    2898.3697   -74.779043   -80.398698   -80.398698    5.6196552 
  967000    2901.5039   -74.764286   -80.390018   -80.390018    5.6257322 
  968000    2906.2597   -74.753358   -80.388311   -80.388311    5.6349532 
  969000     2904.547   -74.740398    -80.37203    -80.37203    5.6316325 
  970000    2909.3792   -74.737158    -80.37816    -80.37816    5.6410017 
  971000    2912.3435   -74.733042   -80.379791   -80.379791    5.6467492 
  972000    2913.8624   -74.710344   -80.360038   -80.360038    5.6496942 
  973000    2920.3861   -74.715153   -80.377496   -80.377496     5.662343 
  974000    2923.1047   -74.696762   -80.364376   -80.364376     5.667614 
  975000    2926.4154   -74.719815   -80.393848   -80.393848    5.6740331 
  976000    2929.2969    -74.70692    -80.38654    -80.38654    5.6796201 
  977000    2929.7953   -74.695874   -80.376461   -80.376461    5.6805866 
  978000    2930.0902   -74.688847   -80.370005   -80.370005    5.6811583 
  979000    2934.5251   -74.693234   -80.382991   -80.382991    5.6897572 
  980000    2940.6824   -74.653169   -80.354864   -80.354864    5.7016955 
  981000    2942.3224   -74.646902   -80.351778   -80.351778    5.7048753 
  982000    2944.7369   -74.666104   -80.375661   -80.375661    5.7095567 
  983000    2950.0549   -74.640736   -80.360604   -80.360604    5.7198678 
  984000    2952.5737   -74.646119   -80.370871   -80.370871    5.7247515 
  985000    2955.9224   -74.642231   -80.373475   -80.373475    5.7312443 
  986000    2957.6145   -74.630149   -80.364675   -80.364675    5.7345253 
  987000    2960.9383   -74.649604   -80.390573   -80.390573    5.7409698 
  988000    2962.3378   -74.637265   -80.380948   -80.380948    5.7436832 
  989000      2966.92   -74.623622    -80.37619    -80.37619    5.7525675 
  990000    2968.7443   -74.608133   -80.364238   -80.364238    5.7561049 
  991000    2974.8836   -74.583684   -80.351693   -80.351693    5.7680083 
  992000    2976.3855   -74.606855   -80.377775   -80.377775    5.7709202 
  993000    2978.9037   -74.587294   -80.363097   -80.363097    5.7758029 
  994000    2981.1161   -74.607358    -80.38745    -80.38745    5.7800924 
  995000    2985.4451    -74.59182   -80.380306   -80.380306     5.788486 
  996000    2986.9066    -74.59437    -80.38569    -80.38569    5.7913196 
  997000    2992.1222   -74.586943   -80.388375   -80.388375    5.8014323 
  998000    2993.2789   -74.584935    -80.38861    -80.38861     5.803675 
  999000    2997.4592   -74.567595   -80.379375   -80.379375    5.8117802 
 1000000       3000.5   -74.568568   -80.386244   -80.386244    5.8176759 
Loop time of 51.8128 on 1 procs for 1000000 steps with 16 atoms

Performance: 166.754 ns/day, 0.144 hours/ns, 19300.256 timesteps/s
99.6% CPU use with 1 MPI tasks x 1 OpenMP threads

MPI task timing breakdown:
Section |  min time  |  avg time  |  max time  |%varavg| %total
---------------------------------------------------------------
Pair    | 46.22      | 46.22      | 46.22      |   0.0 | 89.21
Neigh   | 1.3107     | 1.3107     | 1.3107     |   0.0 |  2.53
Comm    | 0.61198    | 0.61198    | 0.61198    |   0.0 |  1.18
Output  | 0.22057    | 0.22057    | 0.22057    |   0.0 |  0.43
Modify  | 2.9184     | 2.9184     | 2.9184     |   0.0 |  5.63
Other   |            | 0.5311     |            |       |  1.03

Nlocal:        16.0000 ave          16 max          16 min
Histogram: 1 0 0 0 0 0 0 0 0 0
Nghost:        15.0000 ave          15 max          15 min
Histogram: 1 0 0 0 0 0 0 0 0 0
Neighs:         0.00000 ave           0 max           0 min
Histogram: 1 0 0 0 0 0 0 0 0 0
FullNghs:      194.000 ave         194 max         194 min
Histogram: 1 0 0 0 0 0 0 0 0 0

Total # of neighbors = 194
Ave neighs/atom = 12.125000
Neighbor list builds = 35095
Dangerous builds = 0
write_restart 	./endconf/endconf*1.restart
System init for write_restart ...

#==============Constant Temp Phase==================

# Minimize during the constant temperature phase
min_style       sd
minimize        1.0e-5 1.0e-7 500 1000
Per MPI rank memory allocation (min/avg/max) = 6.265 | 6.265 | 6.265 Mbytes
[...]
 1853000    729.04726   -85.292324   -86.705875   -86.705875    1.4135513 
 1854000    763.74319   -86.262168   -87.742992   -87.742992    1.4808233 
 1855000    755.49036   -86.024483   -87.489305   -87.489305    1.4648219 
 1856000    729.23065   -85.840829   -87.254736   -87.254736    1.4139069 
 1857000    750.82346   -86.464982   -87.920755   -87.920755    1.4557732 
 1858000    701.00253    -86.28965   -87.648825   -87.648825    1.3591753 
 1859000    738.51836   -86.177442   -87.609357   -87.609357    1.4319148 
 1860000    748.10278   -86.027465   -87.477963   -87.477963    1.4504981 
 1861000    710.75036   -86.100767   -87.478842   -87.478842    1.3780754 
 1862000    733.76475    -84.85914   -86.281838   -86.281838    1.4226981 
 1863000    731.96759   -85.479699   -86.898913   -86.898913    1.4192136 
 1864000    702.47238   -85.584728   -86.946753   -86.946753    1.3620252 
 1865000    725.59172    -85.81097   -87.217822   -87.217822    1.4068514 
 1866000    719.20831   -86.628161   -88.022635   -88.022635    1.3944746 
 1867000    709.82406     -86.3431   -87.719379   -87.719379    1.3762794 
 1868000    710.32086   -86.476427   -87.853669   -87.853669    1.3772427 
 1869000    698.79041    -86.99132   -88.346206   -88.346206    1.3548863 
 1870000     703.4839   -86.507196   -87.871182   -87.871182    1.3639865 
 1871000    699.21125    -85.81391   -87.169612   -87.169612    1.3557022 
 1872000    671.09617    -86.26943   -87.570619   -87.570619    1.3011898 
 1873000    662.36821   -86.585919   -87.870186   -87.870186    1.2842672 
 1874000    658.31299   -86.668021   -87.944426   -87.944426    1.2764045 
 1875000    679.05309    -86.68729   -88.003908   -88.003908    1.3166175 
 1876000     690.5351   -86.785236   -88.124116   -88.124116      1.33888 
 1877000    641.00202   -86.265829   -87.508669   -87.508669    1.2428402 
 1878000    686.15328   -85.615258   -86.945642   -86.945642    1.3303841 
 1879000    612.18125   -85.267554   -86.454514   -86.454514    1.1869596 
 1880000    664.68259   -86.134592   -87.423346   -87.423346    1.2887545 
 1881000    648.33452    -86.66726   -87.924317   -87.924317    1.2570572 
 1882000    627.36205   -86.574259   -87.790653   -87.790653    1.2163936 
 1883000    666.93865   -86.765762   -88.058891   -88.058891    1.2931288 
 1884000    663.81393   -86.108389   -87.395459   -87.395459    1.2870703 
 1885000    615.14015   -86.560288   -87.752985   -87.752985    1.1926966 
 1886000    638.71962   -86.595905    -87.83432    -87.83432    1.2384149 
 1887000    613.23907   -85.965578   -87.154588   -87.154588    1.1890106 
 1888000    639.02293   -86.547222   -87.786225   -87.786225    1.2390029 
 1889000    624.94303   -86.422942   -87.634645   -87.634645    1.2117034 
 1890000    630.67002   -86.328758   -87.551565   -87.551565    1.2228075 
 1891000    604.41864   -85.806607   -86.978515   -86.978515    1.1719086 
 1892000    645.41509   -86.598597   -87.849993   -87.849993    1.2513967 
 1893000    600.56216   -86.467474   -87.631905   -87.631905    1.1644313 
 1894000    604.27493     -86.4714    -87.64303    -87.64303      1.17163 
 1895000    638.01348   -86.394441   -87.631487   -87.631487    1.2370457 
 1896000    599.09612   -86.758756   -87.920345   -87.920345    1.1615888 
 1897000    614.56295   -86.100775   -87.292353   -87.292353    1.1915774 
 1898000    650.65253   -86.173146   -87.434697   -87.434697    1.2615516 
 1899000    598.10782   -86.957224   -88.116897   -88.116897    1.1596726 
 1900000    589.73277   -86.346046    -87.48948    -87.48948    1.1434342 
 1901000    604.41731   -86.434625   -87.606531   -87.606531     1.171906 
 1902000    598.23182   -86.316634   -87.476547   -87.476547     1.159913 
 1903000    587.71143   -86.050607   -87.190122   -87.190122     1.139515 
 1904000    588.80621    -86.84902   -87.990658   -87.990658    1.1416376 
 1905000    576.26035   -86.376432   -87.493745   -87.493745    1.1173124 
 1906000    607.70094   -86.650815   -87.829088   -87.829088    1.1782727 
 1907000    588.74275   -86.422666   -87.564181   -87.564181    1.1415146 
 1908000    572.86593    -86.55961   -87.670341   -87.670341     1.110731 
 1909000    576.27115   -86.388015   -87.505349   -87.505349    1.1173334 
 1910000     567.7866   -86.344162   -87.445045   -87.445045    1.1008827 
 1911000    569.32201    -86.47964   -87.583499   -87.583499    1.1038597 
 1912000    556.00216   -86.576704   -87.654738   -87.654738    1.0780338 
 1913000    565.90686   -86.905036   -88.002274   -88.002274     1.097238 
 1914000     534.3708    -86.56448   -87.600573   -87.600573    1.0360927 
 1915000    546.78392   -86.682475   -87.742636   -87.742636    1.0601605 
 1916000    550.62087    -86.58978    -87.65738    -87.65738       1.0676 
 1917000    599.86558   -86.296868   -87.459949   -87.459949    1.1630807 
 1918000    562.23246   -86.750141   -87.840254   -87.840254    1.0901137 
 1919000    549.53642   -87.142698   -88.208195   -88.208195    1.0654974 
 1920000     549.3812   -87.013115   -88.078312   -88.078312    1.0651964 
 1921000    510.34742   -86.833503   -87.823016   -87.823016   0.98951373 
 1922000    542.45984   -86.773663   -87.825439   -87.825439    1.0517766 
 1923000    509.57947   -86.530667   -87.518692   -87.518692   0.98802475 
 1924000    519.12474   -86.992832   -87.999365   -87.999365    1.0065321 
 1925000    539.07461   -86.711164   -87.756377   -87.756377    1.0452129 
 1926000    494.59917   -87.239733   -88.198713   -88.198713   0.95897941 
 1927000    510.06745   -86.797852   -87.786823   -87.786823   0.98897088 
 1928000    528.16538   -86.791482   -87.815543   -87.815543     1.024061 
 1929000    542.04739   -87.117474   -88.168451   -88.168451    1.0509769 
 1930000    513.95636    -86.89022   -87.886731   -87.886731   0.99651111 
 1931000    509.93779   -86.364337   -87.353056   -87.353056    0.9887195 
 1932000    494.71937    -87.24422   -88.203432   -88.203432   0.95921245 
 1933000    518.03187    -87.02078   -88.025193   -88.025193    1.0044131 
 1934000    498.53017   -86.894206   -87.860807   -87.860807   0.96660123 
 1935000    493.53931    -87.35442   -88.311345   -88.311345   0.95692443 
 1936000    490.75206   -86.982433   -87.933953   -87.933953   0.95152024 
 1937000    469.18484   -87.061094   -87.970798   -87.970798    0.9097035 
 1938000    494.12311   -87.042393    -88.00045    -88.00045   0.95805636 
 1939000    482.58188   -87.162001    -88.09768    -88.09768   0.93567906 
 1940000    488.38876   -86.953105   -87.900043   -87.900043   0.94693802 
 1941000    451.51286   -86.891979   -87.767418   -87.767418   0.87543927 
 1942000    486.34351   -86.847276   -87.790248   -87.790248   0.94297248 
 1943000    470.82113   -86.957987   -87.870863   -87.870863    0.9128761 
 1944000    463.53013   -86.982589   -87.881328   -87.881328   0.89873958 
 1945000    469.50342   -87.253991   -88.164312   -88.164312    0.9103212 
 1946000    452.24608   -87.250306   -88.127167   -88.127167   0.87686091 
 1947000    442.07508    -87.19981    -88.05695    -88.05695   0.85714033 
 1948000    444.14648    -87.12343   -87.984586   -87.984586   0.86115657 
 1949000    455.64466   -86.913802   -87.797252   -87.797252   0.88345042 
 1950000    451.07332   -86.795084   -87.669671   -87.669671   0.87458703 
 1951000    439.59304   -86.924314   -87.776642   -87.776642    0.8523279 
 1952000    441.40203   -87.120676   -87.976511   -87.976511   0.85583535 
 1953000    439.16095   -87.437921   -88.289412   -88.289412   0.85149013 
 1954000    423.58384   -87.284358   -88.105645   -88.105645   0.82128762 
 1955000    412.92391   -87.103581     -87.9042     -87.9042   0.80061907 
 1956000    420.51202   -86.807347   -87.622679   -87.622679   0.81533167 
 1957000    417.35233   -86.938374   -87.747579   -87.747579   0.80920534 
 1958000    418.87448   -86.531899   -87.344055   -87.344055   0.81215664 
 1959000     420.2012   -87.202502   -88.017231   -88.017231   0.81472902 
 1960000    429.88532   -87.237224   -88.070729   -88.070729   0.83350559 
 1961000    411.53649   -87.255335   -88.053264   -88.053264   0.79792899 
 1962000    394.66974   -87.278582   -88.043808   -88.043808   0.76522601 
 1963000    409.76744   -87.308432   -88.102931   -88.102931   0.79449898 
 1964000    399.58921   -87.346298   -88.121063   -88.121063   0.77476439 
 1965000    383.93407    -87.15667    -87.90108    -87.90108   0.74441061 
 1966000    409.20931   -86.958069   -87.751486   -87.751486   0.79341681 
 1967000    390.24588   -87.126714   -87.883363   -87.883363   0.75664858 
 1968000     395.3606   -87.435717   -88.202282   -88.202282   0.76656552 
 1969000    392.09682   -87.368121   -88.128359   -88.128359   0.76023737 
 1970000    415.29556   -87.106508   -87.911726   -87.911726   0.80521747 
 1971000    384.37658   -87.228019   -87.973288   -87.973288   0.74526859 
 1972000    378.73406   -87.351923   -88.086252   -88.086252   0.73432829 
 1973000    385.89037   -87.267597     -88.0158     -88.0158   0.74820368 
 1974000    374.80763   -87.316616   -88.043332   -88.043332   0.72671533 
 1975000    387.31755   -87.381086   -88.132057   -88.132057   0.75097083 
 1976000    376.13413   -87.127531   -87.856818   -87.856818   0.72928728 
 1977000    350.59567    -87.34302   -88.022791   -88.022791   0.67977072 
 1978000    370.94789   -87.539729    -88.25896    -88.25896   0.71923167 
 1979000    367.23956   -87.642333   -88.354374   -88.354374   0.71204158 
 1980000    356.37063   -87.681332     -88.3723     -88.3723   0.69096779 
 1981000    358.23518   -87.550571   -88.245154   -88.245154   0.69458297 
 1982000    354.19301   -87.391781   -88.078527   -88.078527   0.68674559 
 1983000    339.23954   -87.415934   -88.073687   -88.073687   0.65775227 
 1984000    327.42242   -87.377102   -88.011942   -88.011942   0.63484004 
 1985000    331.60255   -87.707774   -88.350719   -88.350719    0.6429449 
 1986000    346.63284   -87.548739   -88.220826   -88.220826   0.67208716 
 1987000    326.54708   -87.431726   -88.064869   -88.064869   0.63314283 
 1988000    361.65531   -87.479723   -88.180937   -88.180937   0.70121427 
 1989000    341.84142   -87.413492   -88.076289   -88.076289   0.66279707 
 1990000    324.12127   -87.567422   -88.195861   -88.195861   0.62843944 
 1991000    310.31174    -87.50949   -88.111154   -88.111154    0.6016641 
 1992000    328.54552   -87.622095   -88.259113   -88.259113   0.63701763 
 1993000    309.38302   -87.633424   -88.233287   -88.233287   0.59986342 
 1994000      324.764   -87.623521   -88.253207   -88.253207   0.62968562 
 1995000    322.53193   -87.729808   -88.355166   -88.355166   0.62535785 
 1996000    320.19189   -87.760856   -88.381677   -88.381677   0.62082075 
 1997000    317.84282    -87.39594   -88.012206   -88.012206   0.61626614 
 1998000    300.24647   -87.718636   -88.300784   -88.300784   0.58214853 
 1999000    302.13194   -87.583587   -88.169391   -88.169391   0.58580428 
 2000000    305.54863   -87.580267   -88.172696   -88.172696   0.59242891 
 2001000    290.13246   -87.491963   -88.054501   -88.054501   0.56253845 
 2002000    283.93955   -87.709148   -88.259679   -88.259679   0.55053101 
 2003000    290.80676   -87.808331   -88.372177   -88.372177   0.56384585 
 2004000    292.84962    -87.80867   -88.376476   -88.376476   0.56780677 
 2005000    268.29896   -87.861295     -88.3815     -88.3815   0.52020544 
 2006000    272.69382   -87.672357   -88.201084   -88.201084   0.52872663 
 2007000     267.7275   -87.708452    -88.22755    -88.22755   0.51909743 
 2008000    281.86989   -87.837639   -88.384157   -88.384157   0.54651814 
 2009000    274.35939   -87.721321   -88.253277   -88.253277   0.53195602 
 2010000     273.7681   -87.911121    -88.44193    -88.44193   0.53080956 
 2011000    263.57717   -87.938348   -88.449398   -88.449398   0.51105036 
 2012000    254.84354   -87.818989   -88.313106   -88.313106    0.4941167 
 2013000    265.59043   -87.979086    -88.49404    -88.49404   0.51495387 
 2014000    257.22781   -87.711898   -88.210638   -88.210638   0.49873956 
 2015000    246.54298   -87.836041   -88.314064   -88.314064   0.47802273 
 2016000    254.80079   -87.855031   -88.349065   -88.349065   0.49403382 
 2017000     232.8903     -87.6928   -88.144352   -88.144352   0.45155151 
 2018000    246.97502   -87.917215   -88.396076   -88.396076    0.4788604 
 2019000    238.29082   -87.929394   -88.391416   -88.391416   0.46202259 
 2020000     245.6557   -87.771608   -88.247911   -88.247911   0.47630238 
 2021000    234.13659   -87.941255   -88.395223   -88.395223   0.45396794 
 2022000    241.60376   -87.868325   -88.336771   -88.336771   0.46844605 
 2023000     226.7453   -87.798293    -88.23793    -88.23793   0.43963696 
 2024000    223.44874   -87.823446   -88.256692   -88.256692   0.43324525 
 2025000    216.11722   -87.749791   -88.168821   -88.168821   0.41903016 
 2026000    228.86063   -87.876625   -88.320363   -88.320363   0.44373836 
 2027000    225.70388   -87.977624   -88.415241   -88.415241   0.43761773 
 2028000    224.12575   -87.826115   -88.260673   -88.260673    0.4345579 
 2029000    218.70102   -87.916126   -88.340166   -88.340166   0.42403987 
 2030000    199.86674   -88.030746   -88.418268   -88.418268   0.38752205 
 2031000    208.40715    -88.01341   -88.417491   -88.417491   0.40408108 
 2032000    201.20214   -88.054441   -88.444552   -88.444552   0.39011127 
 2033000    198.07982    -88.00694   -88.390998   -88.390998   0.38405739 
 2034000    198.88854   -87.987456   -88.373082   -88.373082   0.38562542 
 2035000    199.74758   -88.008556   -88.395847   -88.395847   0.38729103 
 2036000    197.51355   -88.119142   -88.502101   -88.502101   0.38295944 
 2037000    186.66251    -88.06855    -88.43047    -88.43047   0.36192035 
 2038000     194.8812   -88.126412   -88.504267   -88.504267   0.37785559 
 2039000    181.08841   -88.060752   -88.411864   -88.411864   0.35111271 
 2040000    180.61592   -88.069758   -88.419955   -88.419955   0.35019659 
 2041000    175.47181   -88.004269   -88.344492   -88.344492   0.34022267 
 2042000    178.12541   -88.150444   -88.495811   -88.495811   0.34536774 
 2043000    171.57376   -87.939342   -88.272007   -88.272007   0.33266473 
 2044000    172.70057    -88.06448   -88.399329   -88.399329   0.33484952 
 2045000    157.77281   -88.163737   -88.469643   -88.469643   0.30590605 
 2046000    169.13048   -88.057143    -88.38507    -88.38507   0.32792746 
 2047000    154.36475   -88.187051   -88.486349   -88.486349   0.29929815 
 2048000    150.30732   -88.148078   -88.439509   -88.439509   0.29143118 
 2049000    152.57413   -88.203641   -88.499467   -88.499467   0.29582631 
 2050000    146.40257   -88.274347   -88.558207   -88.558207   0.28386026 
 2051000    148.63566   -88.262048   -88.550238   -88.550238   0.28819001 
 2052000    147.54087   -88.305954   -88.592021   -88.592021   0.28606731 
 2053000    139.64894   -88.307812   -88.578578   -88.578578   0.27076563 
 2054000    142.10142   -88.326468   -88.601988   -88.601988   0.27552075 
 2055000    135.26961   -88.313132   -88.575406   -88.575406   0.26227454 
 2056000    128.89233   -88.253436   -88.503345   -88.503345   0.24990961 
 2057000    130.69698   -88.321628   -88.575036   -88.575036   0.25340866 
 2058000    133.73595    -88.40626   -88.665561   -88.665561   0.25930093 
 2059000    123.06035   -88.305586   -88.544188   -88.544188   0.23860199 
 2060000    113.58566   -88.368772   -88.589004   -88.589004   0.22023148 
 2061000    114.98512   -88.324603   -88.547548   -88.547548   0.22294489 
 2062000    112.21244   -88.423364   -88.640933   -88.640933   0.21756894 
 2063000    105.72345   -88.401595   -88.606582   -88.606582   0.20498742 
 2064000    111.20912   -88.406249   -88.621873   -88.621873    0.2156236 
 2065000     107.3895   -88.433744   -88.641962   -88.641962   0.20821773 
 2066000     101.7947   -88.421306   -88.618676   -88.618676   0.19736997 
 2067000    99.072592    -88.50503   -88.697122   -88.697122   0.19209206 
 2068000    100.03554   -88.426138   -88.620097   -88.620097   0.19395912 
 2069000    92.650403   -88.445312   -88.624953   -88.624953   0.17964007 
 2070000    91.736401   -88.486916   -88.664784   -88.664784   0.17786791 
 2071000    81.982391   -88.436458   -88.595414   -88.595414   0.15895584 
 2072000    85.021404   -88.484861   -88.649709   -88.649709   0.16484819 
 2073000    82.667986   -88.426349   -88.586634   -88.586634   0.16028514 
 2074000    81.065107    -88.41853   -88.575707   -88.575707   0.15717731 
 2075000      75.0816   -88.520235    -88.66581    -88.66581   0.14557588 
 2076000    74.063332   -88.541766   -88.685368   -88.685368   0.14360155 
 2077000    68.518928   -88.487507   -88.620359   -88.620359    0.1328515 
 2078000    66.057991   -88.484725   -88.612805   -88.612805   0.12807998 
 2079000    63.155716   -88.544019   -88.666472   -88.666472   0.12245276 
 2080000     59.93483   -88.501484   -88.617691   -88.617691   0.11620777 
 2081000    56.893245   -88.608724   -88.719034   -88.719034   0.11031044 
 2082000    53.875776   -88.549424   -88.653884   -88.653884   0.10445986 
 2083000    51.496857   -88.622524   -88.722371   -88.722371  0.099847367 
 2084000    48.921537   -88.587601   -88.682455   -88.682455  0.094854074 
 2085000    45.253229   -88.673452   -88.761193   -88.761193  0.087741584 
 2086000    42.557359   -88.636455   -88.718969   -88.718969  0.082514556 
 2087000     39.06272   -88.670651    -88.74639    -88.74639  0.075738792 
 2088000    36.347513   -88.698723   -88.769197   -88.769197  0.070474273 
 2089000    32.853918   -88.697351   -88.761051   -88.761051  0.063700533 
 2090000    28.906303   -88.686713    -88.74276    -88.74276  0.056046494 
 2091000    27.236334   -88.693534   -88.746342   -88.746342  0.052808587 
 2092000    24.246962   -88.693698    -88.74071    -88.74071  0.047012487 
 2093000    21.028883   -88.699836   -88.740609   -88.740609  0.040772947 
 2094000     18.28798   -88.711037   -88.746495   -88.746495  0.035458603 
 2095000    14.768531   -88.707277   -88.735912   -88.735912  0.028634737 
 2096000    11.871462   -88.733775   -88.756792   -88.756792  0.023017604 
 2097000    9.3289017   -88.745888   -88.763976   -88.763976  0.018087828 
 2098000     6.187569   -88.765372    -88.77737    -88.77737  0.011997091 
 2099000    3.0233441   -88.779977   -88.785839   -88.785839 0.0058619685 
 2100000  0.052537333   -88.790549   -88.790651   -88.790651 0.00010186475 
 2100006  0.035466398   -88.790594   -88.790663   -88.790663 6.8765876e-05 
Loop time of 74.6433 on 1 procs for 1000000 steps with 16 atoms

Performance: 115.750 ns/day, 0.207 hours/ns, 13397.048 timesteps/s
99.7% CPU use with 1 MPI tasks x 1 OpenMP threads

MPI task timing breakdown:
Section |  min time  |  avg time  |  max time  |%varavg| %total
---------------------------------------------------------------
Pair    | 67.812     | 67.812     | 67.812     |   0.0 | 90.85
Neigh   | 1.7722     | 1.7722     | 1.7722     |   0.0 |  2.37
Comm    | 1.0396     | 1.0396     | 1.0396     |   0.0 |  1.39
Output  | 0.23033    | 0.23033    | 0.23033    |   0.0 |  0.31
Modify  | 3.1344     | 3.1344     | 3.1344     |   0.0 |  4.20
Other   |            | 0.6543     |            |       |  0.88

Nlocal:        16.0000 ave          16 max          16 min
Histogram: 1 0 0 0 0 0 0 0 0 0
Nghost:        100.000 ave         100 max         100 min
Histogram: 1 0 0 0 0 0 0 0 0 0
Neighs:         0.00000 ave           0 max           0 min
Histogram: 1 0 0 0 0 0 0 0 0 0
FullNghs:      240.000 ave         240 max         240 min
Histogram: 1 0 0 0 0 0 0 0 0 0

Total # of neighbors = 240
Ave neighs/atom = 15.000000
Neighbor list builds = 24795
Dangerous builds = 0
write_restart 	./endconf/endconf*3.restart
System init for write_restart ...

Total wall time: 0:02:12
