ITEM: TIMESTEP
0
ITEM: NUMBER OF ATOMS
400
ITEM: BOX BOUNDS pp pp pp
0 100
0 100
0 100
ITEM: ATOMS id type xs ys zs
1 2 0.966212 0.129173 0.0106569
189 2 0.0705164 0.168502 0.0143702
137 2 0.363373 0.216458 0.00763953
378 2 0.587271 0.257453 0.00708964
395 2 0.518789 0.281669 0.0137915
283 2 0.174293 0.341228 0.0163671
37 2 0.0395884 0.361577 0.0179816
27 2 0.504752 0.372524 0.0126202
254 2 0.306745 0.458619 0.00249159
147 2 0.862762 0.44065 0.00909672
108 2 0.718365 0.56536 0.00193812
57 2 0.927923 0.606117 0.0113408
98 2 0.860519 0.750343 0.013579
371 2 0.888249 0.805498 0.00871551
275 2 0.545243 0.904148 0.0138045
286 2 0.368533 0.934789 0.00469534
351 2 0.727796 0.0597385 0.0255577
129 2 0.0658162 0.172371 0.0374974
20 2 0.0545127 0.195397 0.0296217
289 2 0.439474 0.237403 0.0267719
40 2 0.451016 0.233773 0.0280421
332 2 0.997994 0.288869 0.0251835
173 2 0.772737 0.384663 0.0275418
215 2 0.633335 0.464213 0.0244456
334 2 0.0179125 0.0550993 0.0535852
372 2 0.481598 0.225683 0.0532269
52 2 0.224804 0.28774 0.0529765
292 2 0.33113 0.294702 0.050975
94 2 0.836999 0.448328 0.0560959
50 2 0.131524 0.517645 0.0522016
277 2 0.77685 0.510326 0.0452264
76 2 0.96668 0.986676 0.0561213
61 2 0.85281 0.169695 0.0629378
170 2 0.0464254 0.27132 0.0709347
243 2 0.979621 0.493608 0.0721915
158 2 0.325432 0.534722 0.0780331
4 2 0.446161 0.632479 0.06763
104 2 0.294278 0.931045 0.0752472
202 2 0.77867 0.109246 0.0978233
112 2 0.281802 0.244189 0.0909385
343 2 0.749057 0.397875 0.0841385
55 2 0.170136 0.47332 0.0863928
362 2 0.595497 0.510923 0.0838129
138 2 0.397551 0.646283 0.081865
326 2 0.777157 0.672701 0.0802769
370 2 0.968996 0.909151 0.0979287
115 2 0.528772 0.0741424 0.112001
348 2 0.977931 0.0887792 0.112349
146 2 0.617964 0.11603 0.110125
393 2 0.88256 0.18493 0.118394
100 2 0.676223 0.277807 0.102002
313 2 0.90941 0.447856 0.11705
344 2 0.11552 0.55073 0.113844
287 2 0.914541 0.695431 0.116149
305 2 0.628007 0.909449 0.102211
354 2 0.694592 0.00476734 0.124717
345 2 0.368373 0.247167 0.13902
310 2 0.798968 0.250617 0.125388
361 2 0.724003 0.316958 0.120104
333 2 0.258494 0.512056 0.12245
175 2 0.137182 0.623379 0.123744
169 2 0.199842 0.749933 0.131555
218 2 0.775922 0.926467 0.133014
7 2 0.96258 0.0752751 0.148463
5 2 0.65777 0.134477 0.159616
151 2 0.281321 0.161906 0.148661
45 2 0.765114 0.278166 0.140062
228 2 0.904074 0.768081 0.141726
245 2 0.320907 0.485939 0.179873
320 2 0.78738 0.49159 0.161277
166 2 0.800767 0.482606 0.160326
26 2 0.623765 0.62118 0.168293
366 2 0.0211073 0.749698 0.171295
140 2 0.776996 0.975139 0.161611
352 2 0.547937 0.172439 0.182683
23 2 0.136284 0.52027 0.183243
399 2 0.772448 0.529731 0.191423
48 2 0.952078 0.577688 0.199257
10 2 0.21941 0.616599 0.186028
155 2 0.636507 0.76862 0.19419
93 2 0.746883 0.86245 0.199253
392 2 0.421157 0.3886 0.201576
34 2 0.95766 0.399608 0.206645
229 2 0.984324 0.538122 0.215671
274 2 0.121365 0.78302 0.216371
182 2 0.207582 0.822586 0.205248
338 2 0.0020742 0.861083 0.216642
3 2 0.940139 0.922486 0.217079
259 2 0.574349 0.0903332 0.230243
96 2 0.10461 0.180831 0.227483
180 2 0.874193 0.564421 0.226873
367 2 0.952558 0.644209 0.224429
230 2 0.776638 0.953664 0.223556
328 2 0.675074 0.96729 0.235823
267 2 0.390075 0.984604 0.231721
68 2 0.624028 0.0348216 0.246228
193 2 0.826028 0.0520171 0.251896
261 2 0.0346334 0.0839675 0.241803
167 2 0.598447 0.0917628 0.257016
174 2 0.894758 0.194755 0.252046
317 2 0.50362 0.340766 0.259379
311 2 0.402475 0.392114 0.259953
303 2 0.501188 0.465416 0.250985
279 2 0.349302 0.726854 0.243335
39 2 0.394112 0.842403 0.259264
51 2 0.352946 0.961698 0.259191
240 2 0.653658 0.0352987 0.265806
73 2 0.728687 0.0435103 0.277865
260 2 0.690968 0.096166 0.26156
291 2 0.370272 0.156558 0.273477
248 2 0.675919 0.167149 0.268656
185 2 0.819432 0.1872 0.268602
124 2 0.823132 0.385689 0.269237
318 2 0.376773 0.421924 0.273621
132 2 0.919705 0.488622 0.272149
75 2 0.971475 0.574776 0.266018
241 2 0.409697 0.771956 0.260053
355 2 0.120536 0.85591 0.275454
381 2 0.636512 0.850554 0.263294
391 2 0.27946 0.879352 0.27027
278 2 0.12054 0.913207 0.263601
321 2 0.582968 0.949502 0.27783
293 2 0.736481 0.0424999 0.2957
64 2 0.311903 0.162033 0.288523
139 2 0.905605 0.498382 0.298612
105 2 0.679107 0.759284 0.293643
82 2 0.772175 0.953489 0.284402
179 2 0.675911 0.0304221 0.303497
376 2 0.761354 0.0717742 0.308457
242 2 0.708346 0.17078 0.307073
238 2 0.867032 0.215226 0.306556
252 2 0.806236 0.405207 0.314212
70 2 0.0461438 0.539019 0.300418
41 2 0.303002 0.554371 0.318736
315 2 0.617281 0.639097 0.309929
106 2 0.260832 0.79564 0.317802
247 2 0.343311 0.0254856 0.336329
322 2 0.494088 0.132702 0.327054
231 2 0.30429 0.195355 0.323628
380 2 0.220519 0.257532 0.336743
89 2 0.983187 0.420618 0.334422
183 2 0.602216 0.44061 0.339441
389 2 0.405705 0.690446 0.334178
29 2 0.317898 0.912199 0.333639
101 2 0.352592 0.0116226 0.340377
379 2 0.155533 0.0399451 0.357781
363 2 0.642955 0.146984 0.359115
234 2 0.786769 0.229389 0.341179
323 2 0.794686 0.295612 0.355761
21 2 0.852167 0.378494 0.340663
148 2 0.888656 0.635946 0.350242
56 2 0.00349049 0.664625 0.348541
72 2 0.729626 0.824022 0.34008
172 2 0.81019 0.868707 0.358647
97 2 0.303858 0.942783 0.359961
131 2 0.0613447 0.0207871 0.368294
54 2 0.179779 0.552113 0.36468
250 2 0.279084 0.568833 0.378623
17 2 0.681657 0.606496 0.379297
141 2 0.193896 0.809804 0.37905
198 2 0.931393 0.929277 0.366185
262 2 0.979528 0.929219 0.378333
66 2 0.916167 0.0199553 0.388943
237 2 0.251276 0.190896 0.392686
58 2 0.605307 0.387659 0.384436
6 2 0.667068 0.418361 0.387277
156 2 0.745434 0.501303 0.394561
111 2 0.691477 0.655107 0.381286
85 2 0.946503 0.86853 0.38832
22 2 0.530784 0.888581 0.385621
253 2 0.964115 0.884536 0.390094
11 2 0.568449 0.921187 0.396786
184 2 0.989351 0.0221581 0.410354
186 2 0.39615 0.0891544 0.417226
16 2 0.508365 0.0957579 0.403265
188 2 0.413883 0.138717 0.408643
319 2 0.754463 0.260809 0.416123
71 2 0.129488 0.297401 0.412729
125 2 0.0620197 0.365289 0.417577
302 2 0.460198 0.555805 0.415273
216 2 0.857839 0.701339 0.401986
65 2 0.209369 0.870436 0.419106
60 2 0.062174 0.957602 0.416068
77 2 0.230853 0.95421 0.41079
324 2 0.274245 0.22987 0.433332
387 2 0.367966 0.407296 0.425997
211 2 0.433191 0.633987 0.426162
187 2 0.309563 0.819446 0.429786
69 2 0.348178 0.821172 0.432323
102 2 0.722552 0.938444 0.433062
53 2 0.376283 0.181915 0.450299
308 2 0.510041 0.264857 0.444929
59 2 0.223496 0.295142 0.449876
47 2 0.71175 0.388615 0.44856
327 2 0.213929 0.502675 0.459373
271 2 0.220117 0.50559 0.450769
78 2 0.146111 0.682183 0.457791
86 2 0.499078 0.00794076 0.460273
284 2 0.0824242 0.302938 0.472125
377 2 0.233142 0.412832 0.47097
353 2 0.354229 0.527963 0.472821
192 2 0.611508 0.61739 0.472471
374 2 0.70172 0.806359 0.477536
42 2 0.989114 0.0393579 0.487657
281 2 0.47939 0.107068 0.49852
25 2 0.410736 0.246117 0.494236
19 2 0.417285 0.312934 0.490037
150 2 0.776784 0.406823 0.480174
32 2 0.718184 0.518445 0.499485
220 2 0.0364452 0.534093 0.497972
136 2 0.349302 0.721454 0.482261
12 2 0.779004 0.725143 0.484621
210 2 0.112919 0.835276 0.489048
263 2 0.641865 0.829148 0.482907
87 2 0.810677 0.0526866 0.502943
227 2 0.970021 0.150979 0.501333
13 2 0.0270371 0.412954 0.511468
347 2 0.224515 0.426876 0.511214
84 2 0.150738 0.461565 0.517817
208 2 0.934585 0.562713 0.51608
299 2 0.53482 0.711936 0.515359
49 2 0.914066 0.700928 0.501704
114 2 0.229177 0.784227 0.505357
63 2 0.755332 0.860267 0.505344
203 2 0.116438 0.96564 0.519824
107 2 0.304874 0.0234743 0.531845
309 2 0.915594 0.387072 0.522389
360 2 0.781663 0.406112 0.531726
213 2 0.103697 0.83635 0.530058
341 2 0.452778 0.848011 0.522286
144 2 0.91336 0.840277 0.535293
298 2 0.333501 0.151458 0.54778
44 2 0.161023 0.319186 0.557135
83 2 0.945641 0.394631 0.559835
222 2 0.118745 0.740855 0.54661
350 2 0.324028 0.931966 0.548089
30 2 0.46368 0.0719088 0.571209
329 2 0.471189 0.270219 0.572873
340 2 0.312212 0.351495 0.575858
109 2 0.574014 0.454964 0.577428
90 2 0.633691 0.441814 0.56166
99 2 0.221976 0.744128 0.56064
217 2 0.184734 0.81767 0.572665
149 2 0.515334 0.211019 0.594144
364 2 0.639576 0.354708 0.584858
335 2 0.60602 0.383268 0.588466
153 2 0.296416 0.856107 0.591111
168 2 0.675198 0.0563823 0.617612
143 2 0.303211 0.0616178 0.610812
398 2 0.24402 0.242555 0.619193
258 2 0.870201 0.473411 0.614124
164 2 0.745016 0.48537 0.607456
9 2 0.379635 0.519166 0.617553
269 2 0.260108 0.631678 0.604412
177 2 0.717655 0.629239 0.616636
181 2 0.0620991 0.699388 0.612019
280 2 0.731046 0.685049 0.617033
81 2 0.972497 0.759065 0.603604
233 2 0.196599 0.23726 0.631926
126 2 0.21315 0.403798 0.636424
349 2 0.256661 0.705518 0.635409
396 2 0.794384 0.219828 0.654798
357 2 0.730843 0.271414 0.648441
388 2 0.730725 0.288133 0.657548
24 2 0.765829 0.295094 0.653026
373 2 0.584834 0.312111 0.656256
161 2 0.775655 0.428848 0.654612
296 2 0.177812 0.491025 0.655471
346 2 0.513268 0.488228 0.650219
314 2 0.265996 0.586639 0.643221
35 2 0.0905352 0.625017 0.653491
325 2 0.0053538 0.981356 0.652453
119 2 0.673769 0.0280043 0.668135
221 2 0.40704 0.125344 0.663838
249 2 0.299172 0.182226 0.670511
219 2 0.55859 0.229171 0.673234
365 2 0.706513 0.371552 0.676327
162 2 0.070058 0.464608 0.661074
152 2 0.541949 0.530057 0.675986
201 2 0.583483 0.601694 0.670303
123 2 0.014162 0.0204491 0.687203
301 2 0.169345 0.174432 0.683731
117 2 0.522482 0.36126 0.692349
43 2 0.0489932 0.428315 0.685319
145 2 0.667081 0.626268 0.688619
316 2 0.971661 0.706592 0.690397
36 2 0.216327 0.801433 0.684301
133 2 0.00475207 0.868012 0.681085
127 2 0.381396 0.121241 0.702074
160 2 0.443106 0.278974 0.71695
390 2 0.525457 0.362986 0.704723
368 2 0.985572 0.51215 0.701796
62 2 0.794765 0.615381 0.704513
330 2 0.270819 0.651914 0.712061
79 2 0.0931003 0.736759 0.716384
244 2 0.322903 0.0280673 0.727692
14 2 0.250933 0.432661 0.728135
369 2 0.0804842 0.697908 0.732907
178 2 0.807449 0.800365 0.739375
288 2 0.122855 0.830352 0.728175
300 2 0.636452 0.85677 0.726493
205 2 0.15417 0.12886 0.742939
120 2 0.340535 0.370604 0.749063
207 2 0.697353 0.406066 0.75611
110 2 0.834327 0.527325 0.745028
400 2 0.245241 0.758419 0.751662
103 2 0.465285 0.0419921 0.760653
239 2 0.291788 0.0780485 0.760972
199 2 0.473022 0.0885203 0.761209
91 2 0.824009 0.123149 0.764275
397 2 0.19814 0.145462 0.774275
270 2 0.35617 0.146235 0.773976
225 2 0.42757 0.164858 0.769845
235 2 0.193925 0.302419 0.762049
268 2 0.531825 0.378043 0.77618
331 2 0.609601 0.570106 0.773725
116 2 0.404525 0.850585 0.778159
191 2 0.439037 0.900385 0.77037
80 2 0.268166 0.0607365 0.797999
265 2 0.600055 0.130053 0.798284
212 2 0.506644 0.163134 0.798067
134 2 0.00134177 0.551127 0.797352
297 2 0.495481 0.548033 0.790048
295 2 0.989867 0.699935 0.799856
224 2 0.553607 0.48086 0.819862
165 2 0.515126 0.730578 0.818992
206 2 0.577008 0.771036 0.805063
122 2 0.601347 0.840174 0.807998
273 2 0.3652 0.919367 0.802827
359 2 0.972865 0.939181 0.812625
194 2 0.612364 0.00677244 0.824382
255 2 0.876124 0.00843929 0.839176
46 2 0.0192199 0.0289067 0.834457
2 2 0.110687 0.312062 0.825307
92 2 0.17519 0.413508 0.82952
33 2 0.843609 0.537504 0.833162
236 2 0.764362 0.632405 0.828896
121 2 0.493826 0.737421 0.83677
266 2 0.762947 0.855347 0.820872
67 2 0.964053 0.840592 0.827609
209 2 0.763967 0.99868 0.821212
336 2 0.346115 0.149393 0.8517
195 2 0.392493 0.635619 0.840955
118 2 0.3042 0.683159 0.855279
74 2 0.0718068 0.85761 0.845122
356 2 0.562739 0.949239 0.85439
385 2 0.272865 0.0451516 0.862803
113 2 0.402574 0.0626447 0.869294
246 2 0.120729 0.0889438 0.878047
196 2 0.936286 0.156118 0.878928
358 2 0.350403 0.220377 0.87981
15 2 0.762438 0.297964 0.877165
256 2 0.0351255 0.355023 0.87553
312 2 0.0287602 0.372218 0.871298
128 2 0.765419 0.40173 0.879221
306 2 0.859979 0.671379 0.865519
276 2 0.0114645 0.683458 0.87962
394 2 0.845587 0.786926 0.867705
142 2 0.698567 0.817151 0.860671
190 2 0.52055 0.885279 0.879719
204 2 0.678232 0.0508052 0.883034
232 2 0.222912 0.489194 0.888213
18 2 0.85278 0.680484 0.898876
38 2 0.217511 0.703569 0.886499
337 2 0.529365 0.0406324 0.908312
257 2 0.040525 0.102988 0.917408
163 2 0.666042 0.16927 0.916805
290 2 0.955328 0.191165 0.905597
282 2 0.620125 0.43648 0.915046
272 2 0.0797635 0.584692 0.910535
154 2 0.809761 0.655197 0.90008
342 2 0.0596824 0.0818071 0.932216
382 2 0.177552 0.109534 0.93477
375 2 0.942059 0.186169 0.935667
31 2 0.306912 0.26798 0.938461
159 2 0.502866 0.668943 0.927378
226 2 0.79245 0.707736 0.926814
304 2 0.301356 0.896468 0.930781
223 2 0.865886 0.941211 0.932621
28 2 0.10781 0.962928 0.937664
130 2 0.218917 0.334798 0.950917
176 2 0.759652 0.477477 0.950302
197 2 0.140447 0.496159 0.94008
157 2 0.394998 0.72404 0.943436
264 2 0.22603 0.878738 0.948212
200 2 0.639503 0.126195 0.966715
383 2 0.678719 0.234127 0.978157
294 2 0.829138 0.315165 0.976616
339 2 0.0983119 0.327778 0.966045
95 2 0.803675 0.358658 0.961094
386 2 0.132963 0.710298 0.979852
8 2 0.211977 0.700421 0.967893
135 2 0.0879271 0.790978 0.968129
384 2 0.879505 0.83465 0.961282
171 2 0.199211 0.14482 0.983269
285 2 0.0103156 0.37395 0.981815
214 2 0.686293 0.531683 0.988316
307 2 0.779174 0.575891 0.992414
88 2 0.968919 0.617064 0.998333
251 2 0.515791 0.907478 0.986542
ITEM: TIMESTEP
30000
ITEM: NUMBER OF ATOMS
400
ITEM: BOX BOUNDS pp pp pp
0 100
0 100
0 100
ITEM: ATOMS id type xs ys zs
1 2 0.961812 0.128659 0.00265735
189 2 0.0778238 0.171815 0.0108561
137 2 0.359654 0.218416 0.00800941
378 2 0.586706 0.257348 0.0113398
395 2 0.520101 0.282404 0.0153249
283 2 0.175299 0.344061 0.0171892
27 2 0.50286 0.372448 0.0140646
147 2 0.864796 0.449256 0.00958366
57 2 0.93229 0.596663 0.0186105
98 2 0.861932 0.75252 0.0106426
371 2 0.889382 0.805594 0.00797533
286 2 0.368489 0.936319 0.00353483
351 2 0.726157 0.0671052 0.0269099
271 2 0.241535 0.127124 0.0368639
20 2 0.0639107 0.19 0.0307918
332 2 0.997743 0.28954 0.0315231
37 2 0.0401472 0.362221 0.0257712
173 2 0.764725 0.390403 0.0262054
215 2 0.633845 0.467962 0.0239442
285 2 0.679118 0.645737 0.0250036
334 2 0.0179135 0.0562746 0.0445789
129 2 0.0613853 0.170772 0.0435268
52 2 0.23131 0.286584 0.0533888
292 2 0.325381 0.298191 0.0526852
50 2 0.125996 0.513633 0.0473195
277 2 0.778993 0.513905 0.0463978
76 2 0.966206 0.985469 0.0516279
40 2 0.89451 0.0943246 0.0768448
61 2 0.85664 0.176113 0.0624644
170 2 0.0446232 0.273663 0.0626161
94 2 0.826237 0.442492 0.0619569
243 2 0.977696 0.490711 0.0762539
158 2 0.320334 0.539124 0.0702367
4 2 0.441186 0.636395 0.0733153
138 2 0.403172 0.642023 0.0776175
326 2 0.784387 0.667904 0.0735539
104 2 0.299381 0.93332 0.0769161
100 2 0.67774 0.269684 0.0986903
343 2 0.745484 0.40057 0.0874101
55 2 0.176095 0.472157 0.0867533
362 2 0.587264 0.520536 0.082439
373 2 0.0243815 0.535327 0.0793127
370 2 0.970182 0.908238 0.0944195
115 2 0.518783 0.0734963 0.113531
348 2 0.984232 0.0897824 0.11501
146 2 0.609556 0.112301 0.110368
202 2 0.786201 0.103331 0.100577
112 2 0.281144 0.238008 0.101664
333 2 0.256534 0.512009 0.11657
344 2 0.12012 0.552471 0.110739
175 2 0.134749 0.608973 0.113698
287 2 0.919827 0.697704 0.106101
305 2 0.629961 0.905628 0.103966
354 2 0.694012 0.00256939 0.121098
393 2 0.87503 0.184417 0.121614
310 2 0.792618 0.239796 0.126955
345 2 0.366245 0.249182 0.136453
361 2 0.726616 0.321568 0.122498
313 2 0.910419 0.447972 0.121717
169 2 0.201203 0.752168 0.136496
228 2 0.904601 0.77323 0.135517
218 2 0.762857 0.923479 0.120939
7 2 0.967407 0.0771406 0.150422
151 2 0.277446 0.16637 0.140608
45 2 0.765687 0.27227 0.140047
166 2 0.987001 0.357618 0.147095
73 2 0.685366 0.0491194 0.178748
5 2 0.659558 0.138388 0.165173
23 2 0.125795 0.526501 0.177631
366 2 0.0294493 0.749737 0.163857
140 2 0.778884 0.972343 0.163117
352 2 0.553087 0.17682 0.193765
245 2 0.323475 0.480495 0.183767
399 2 0.766274 0.530719 0.191133
10 2 0.21848 0.622133 0.183708
155 2 0.63289 0.770758 0.195793
392 2 0.41732 0.389666 0.202769
34 2 0.956627 0.394938 0.214374
229 2 0.98751 0.544344 0.215792
48 2 0.952684 0.582889 0.205587
274 2 0.117345 0.776808 0.219103
182 2 0.207665 0.817062 0.206847
93 2 0.751677 0.866885 0.20771
3 2 0.941086 0.920243 0.212538
275 2 0.666481 0.886542 0.230743
261 2 0.0354602 0.0777497 0.236889
259 2 0.570529 0.0875725 0.231965
390 2 0.136406 0.108906 0.236132
96 2 0.109963 0.179584 0.223465
180 2 0.870261 0.564288 0.233702
367 2 0.953376 0.642476 0.222178
338 2 0.00331053 0.864622 0.225713
230 2 0.781308 0.951436 0.220859
328 2 0.685248 0.969862 0.232287
267 2 0.388247 0.983293 0.2264
68 2 0.616844 0.034761 0.241502
240 2 0.652928 0.0299628 0.257022
193 2 0.820784 0.0520614 0.249594
174 2 0.896497 0.20543 0.252587
303 2 0.502148 0.471371 0.25149
279 2 0.351759 0.722625 0.242836
51 2 0.357738 0.964964 0.254006
167 2 0.601676 0.0966241 0.266054
260 2 0.692391 0.0856447 0.260407
291 2 0.37871 0.155568 0.274426
248 2 0.679467 0.160338 0.266113
185 2 0.820309 0.187231 0.261782
317 2 0.506096 0.334199 0.262295
311 2 0.406349 0.389482 0.260287
124 2 0.822148 0.380795 0.271634
132 2 0.918214 0.489865 0.269155
75 2 0.976773 0.570548 0.265719
241 2 0.409208 0.769852 0.261334
39 2 0.394196 0.840342 0.263577
381 2 0.635659 0.854423 0.263703
391 2 0.273267 0.884639 0.27166
278 2 0.118503 0.909555 0.267433
321 2 0.587966 0.950268 0.269858
247 2 0.244499 0.173081 0.293224
64 2 0.316985 0.168192 0.290722
139 2 0.900436 0.486148 0.294934
70 2 0.0495077 0.538729 0.29958
105 2 0.678042 0.760502 0.297084
355 2 0.120706 0.86311 0.283865
82 2 0.770502 0.955795 0.288574
179 2 0.674723 0.039991 0.308603
376 2 0.763136 0.0738113 0.308178
242 2 0.712726 0.161716 0.309046
238 2 0.867984 0.211521 0.311183
117 2 0.427865 0.30636 0.298799
289 2 0.728179 0.368624 0.344994
252 2 0.806135 0.408042 0.315559
315 2 0.616146 0.640739 0.31573
106 2 0.257972 0.796397 0.313571
322 2 0.491218 0.130937 0.334843
231 2 0.295048 0.200228 0.330048
234 2 0.794916 0.234753 0.335206
327 2 0.705011 0.381764 0.335467
89 2 0.977062 0.410932 0.337171
183 2 0.600776 0.442718 0.339147
389 2 0.403661 0.687353 0.336838
72 2 0.730631 0.821829 0.33961
379 2 0.148785 0.039857 0.359154
363 2 0.638315 0.145758 0.357295
380 2 0.220822 0.259376 0.342401
21 2 0.862909 0.371554 0.347736
148 2 0.891238 0.636453 0.350383
56 2 0.00197141 0.666613 0.351588
29 2 0.316532 0.918205 0.341688
131 2 0.0601947 0.0247301 0.364994
323 2 0.790742 0.299954 0.361074
54 2 0.176125 0.552019 0.367177
250 2 0.281832 0.572594 0.376053
172 2 0.81178 0.874901 0.364761
198 2 0.930398 0.925972 0.364871
262 2 0.988037 0.935089 0.376847
97 2 0.312084 0.950331 0.361927
66 2 0.922967 0.0154279 0.382148
293 2 0.779802 0.0368896 0.394817
237 2 0.243012 0.195837 0.395803
58 2 0.606526 0.385561 0.381433
6 2 0.666678 0.417999 0.39067
156 2 0.744878 0.508941 0.384339
17 2 0.678586 0.605584 0.382298
268 2 0.285034 0.662077 0.392665
111 2 0.688058 0.666241 0.380436
141 2 0.197706 0.812641 0.383056
101 2 0.451404 0.864027 0.383482
85 2 0.946204 0.871962 0.387651
22 2 0.530031 0.887731 0.387018
253 2 0.962476 0.884557 0.395772
184 2 0.985924 0.0214827 0.40758
186 2 0.399132 0.093188 0.417537
16 2 0.509897 0.0968443 0.406653
188 2 0.41514 0.132786 0.404574
319 2 0.754009 0.249315 0.415571
71 2 0.132565 0.297005 0.413678
302 2 0.453118 0.554285 0.406774
216 2 0.852387 0.70261 0.40939
11 2 0.575554 0.915311 0.402511
60 2 0.0673218 0.959172 0.417231
77 2 0.220624 0.955726 0.403569
324 2 0.275536 0.226323 0.432765
125 2 0.059202 0.358577 0.424213
387 2 0.363043 0.407641 0.430473
211 2 0.427059 0.634049 0.424074
187 2 0.311888 0.81533 0.434228
69 2 0.350471 0.818629 0.433707
65 2 0.207934 0.866561 0.422998
102 2 0.722393 0.938138 0.431658
320 2 0.759805 0.0961341 0.455405
308 2 0.506876 0.267401 0.442103
59 2 0.22239 0.297923 0.447732
47 2 0.707983 0.385379 0.446891
78 2 0.144078 0.682233 0.456532
86 2 0.500162 0.0145635 0.461344
53 2 0.376484 0.174047 0.460456
284 2 0.076437 0.307627 0.472882
377 2 0.22958 0.417298 0.478785
150 2 0.773383 0.410709 0.471798
353 2 0.352111 0.526875 0.468036
192 2 0.608084 0.62031 0.46848
42 2 0.993377 0.034459 0.491931
87 2 0.809826 0.0546413 0.499063
281 2 0.480503 0.106616 0.484083
25 2 0.410242 0.240844 0.493872
19 2 0.416264 0.311495 0.498446
32 2 0.717345 0.507902 0.492261
220 2 0.0349023 0.540007 0.497235
136 2 0.360631 0.71775 0.484377
12 2 0.781168 0.727844 0.481877
374 2 0.701893 0.80263 0.480922
210 2 0.10905 0.835009 0.490371
263 2 0.635647 0.825707 0.487194
227 2 0.974982 0.148492 0.503991
13 2 0.0273385 0.40234 0.509454
347 2 0.228538 0.434559 0.515856
84 2 0.158851 0.461711 0.517811
208 2 0.941635 0.557863 0.516141
49 2 0.914954 0.704325 0.50646
114 2 0.224591 0.784414 0.503505
63 2 0.757562 0.867606 0.508634
107 2 0.310265 0.0216546 0.529166
309 2 0.918479 0.395793 0.523127
360 2 0.782543 0.400466 0.531137
299 2 0.53663 0.709775 0.52349
213 2 0.106054 0.841749 0.526478
341 2 0.444781 0.841762 0.520492
144 2 0.919065 0.842188 0.534635
203 2 0.11032 0.961824 0.520083
298 2 0.335246 0.145058 0.547309
318 2 0.264895 0.306609 0.559856
44 2 0.1652 0.322506 0.549716
83 2 0.942653 0.391028 0.55672
222 2 0.123518 0.738754 0.542055
350 2 0.321594 0.9283 0.546746
30 2 0.461327 0.0754056 0.563734
329 2 0.468396 0.267094 0.569322
340 2 0.315247 0.347346 0.579642
90 2 0.628928 0.437174 0.561443
99 2 0.231594 0.741316 0.560933
357 2 0.731568 0.167368 0.591767
149 2 0.515924 0.211228 0.591677
364 2 0.640896 0.351322 0.580914
335 2 0.6058 0.381753 0.587546
109 2 0.573522 0.462047 0.581584
269 2 0.257728 0.637959 0.594583
217 2 0.186538 0.822809 0.581693
153 2 0.30208 0.858137 0.582267
168 2 0.672212 0.0581151 0.615101
143 2 0.305626 0.0637033 0.613325
398 2 0.250526 0.245421 0.613582
164 2 0.743947 0.486156 0.600135
258 2 0.870115 0.482885 0.609966
9 2 0.387129 0.516051 0.616365
177 2 0.71625 0.634088 0.610531
280 2 0.72643 0.6815 0.613402
181 2 0.0583093 0.701278 0.6199
81 2 0.971353 0.762057 0.602133
233 2 0.19866 0.233421 0.634037
339 2 0.442773 0.284798 0.597384
41 2 0.368603 0.969399 0.620128
396 2 0.799515 0.220798 0.658002
126 2 0.214578 0.401203 0.640138
161 2 0.778559 0.429208 0.65246
162 2 0.074288 0.466175 0.656313
296 2 0.190031 0.486929 0.65215
346 2 0.511335 0.490076 0.647855
314 2 0.264559 0.583115 0.643382
35 2 0.0914827 0.631287 0.656133
349 2 0.25972 0.705917 0.645225
325 2 0.00511682 0.978784 0.657051
119 2 0.672558 0.0184146 0.666115
221 2 0.417592 0.121924 0.671512
249 2 0.292537 0.178869 0.669655
219 2 0.555232 0.230884 0.674091
24 2 0.771477 0.296682 0.660084
365 2 0.708022 0.372325 0.664516
201 2 0.589661 0.602724 0.671326
133 2 0.0103712 0.86002 0.67888
123 2 0.023335 0.0172111 0.686436
127 2 0.384431 0.12128 0.698088
301 2 0.175804 0.175861 0.685569
152 2 0.543768 0.53364 0.683577
145 2 0.671112 0.632113 0.692301
316 2 0.974961 0.704865 0.696319
36 2 0.212411 0.798049 0.686395
160 2 0.442512 0.282162 0.711108
388 2 0.729999 0.39218 0.714222
368 2 0.990445 0.514825 0.701006
62 2 0.790678 0.615776 0.70978
330 2 0.273172 0.650741 0.71681
244 2 0.322602 0.0331354 0.727708
14 2 0.249563 0.438729 0.726981
369 2 0.0766897 0.70268 0.72619
79 2 0.0924896 0.733027 0.720395
288 2 0.120116 0.830454 0.725606
300 2 0.639551 0.859837 0.726814
239 2 0.290366 0.0745746 0.747761
199 2 0.469712 0.0885864 0.758267
205 2 0.151696 0.121484 0.746088
235 2 0.194926 0.304262 0.759789
120 2 0.341317 0.37325 0.749524
207 2 0.696526 0.40995 0.754806
110 2 0.840038 0.528488 0.741877
178 2 0.807047 0.803333 0.740819
103 2 0.462812 0.0462071 0.764848
397 2 0.205551 0.137809 0.770193
91 2 0.823841 0.121703 0.763795
270 2 0.360238 0.142709 0.772515
225 2 0.427282 0.163117 0.76812
331 2 0.614954 0.568363 0.771024
400 2 0.244745 0.756444 0.76227
116 2 0.402255 0.851835 0.778811
191 2 0.439908 0.897586 0.771745
80 2 0.266467 0.0565669 0.799971
212 2 0.503358 0.169474 0.788153
297 2 0.494422 0.553932 0.795025
134 2 0.995338 0.552996 0.796899
265 2 0.598598 0.136008 0.802088
295 2 0.993462 0.6926 0.804558
165 2 0.503279 0.725048 0.818233
206 2 0.574341 0.771577 0.801231
122 2 0.605075 0.835548 0.806207
266 2 0.762297 0.848998 0.815567
273 2 0.362028 0.918201 0.803131
359 2 0.972034 0.934672 0.812538
209 2 0.763486 0.998749 0.817583
194 2 0.610634 0.00485861 0.828467
255 2 0.882241 0.0136843 0.836389
2 2 0.107518 0.315523 0.827471
92 2 0.173213 0.418146 0.833679
224 2 0.55951 0.483639 0.82128
33 2 0.852285 0.543805 0.826792
236 2 0.760002 0.635398 0.826568
121 2 0.491703 0.726191 0.834588
67 2 0.95109 0.841953 0.827567
46 2 0.014432 0.029266 0.840302
336 2 0.33868 0.152135 0.855671
312 2 0.986851 0.485421 0.843433
195 2 0.388243 0.641679 0.850423
118 2 0.308256 0.682079 0.858177
74 2 0.0668225 0.85239 0.843435
385 2 0.273065 0.0502266 0.866581
246 2 0.118071 0.0820945 0.87481
196 2 0.934904 0.167297 0.873193
15 2 0.761265 0.300016 0.870259
128 2 0.766558 0.407332 0.877263
306 2 0.853555 0.666756 0.866333
394 2 0.843067 0.78624 0.86745
142 2 0.700135 0.815029 0.869489
190 2 0.51747 0.891257 0.878009
356 2 0.564213 0.954859 0.861259
113 2 0.402317 0.0596423 0.884685
204 2 0.67912 0.0448188 0.888649
358 2 0.341559 0.21539 0.880427
232 2 0.219414 0.485861 0.885114
154 2 0.812744 0.654694 0.899631
276 2 0.0140493 0.67929 0.883339
18 2 0.85638 0.679528 0.892552
38 2 0.215573 0.700984 0.883796
337 2 0.519686 0.0443096 0.910903
163 2 0.669057 0.175132 0.914563
290 2 0.956421 0.18976 0.901466
256 2 0.077035 0.24182 0.903396
26 2 0.680878 0.262119 0.911026
282 2 0.628848 0.433578 0.917354
272 2 0.0734363 0.593582 0.912805
342 2 0.0586048 0.082761 0.934359
257 2 0.0351297 0.102806 0.920619
382 2 0.181091 0.110689 0.932611
31 2 0.306358 0.269536 0.93431
372 2 0.299839 0.571113 0.895274
159 2 0.502719 0.660451 0.925072
226 2 0.78815 0.709362 0.934955
157 2 0.392842 0.720173 0.937349
304 2 0.300983 0.897428 0.925515
223 2 0.863064 0.935283 0.927574
28 2 0.105506 0.958897 0.938658
375 2 0.941088 0.192993 0.940667
130 2 0.217906 0.33603 0.9533
176 2 0.758672 0.476495 0.949072
197 2 0.140946 0.492846 0.943584
43 2 0.0117786 0.574934 0.929837
384 2 0.881161 0.842155 0.958604
264 2 0.227529 0.878891 0.946146
200 2 0.635935 0.116589 0.964411
171 2 0.208539 0.139823 0.97591
383 2 0.680281 0.237806 0.979435
294 2 0.833865 0.313282 0.973388
95 2 0.807499 0.347802 0.960496
386 2 0.123359 0.709816 0.978767
8 2 0.200476 0.706914 0.967053
135 2 0.0904889 0.790689 0.963977
254 2 0.308747 0.462831 0.993667
214 2 0.686474 0.542389 0.98666
108 2 0.717295 0.566196 0.999604
307 2 0.778786 0.575992 0.987656
88 2 0.971356 0.608365 0.995942
251 2 0.515389 0.91202 0.983449
ITEM: TIMESTEP
60000
ITEM: NUMBER OF ATOMS
400
ITEM: BOX BOUNDS pp pp pp
0 100
0 100
0 100
ITEM: ATOMS id type xs ys zs
1 2 0.961369 0.128608 0.00185329
189 2 0.0785582 0.172148 0.0105028
137 2 0.35928 0.218613 0.00804659
378 2 0.586649 0.257338 0.011767
395 2 0.520233 0.282477 0.0154791
283 2 0.1754 0.344345 0.0172718
27 2 0.502669 0.37244 0.0142097
373 2 0.0853899 0.427449 0.999408
147 2 0.865001 0.450121 0.00963261
57 2 0.932729 0.595713 0.0193412
98 2 0.862074 0.752739 0.0103474
371 2 0.889496 0.805604 0.00790093
286 2 0.368485 0.936473 0.00341819
351 2 0.725992 0.0678456 0.0270459
20 2 0.0648554 0.189457 0.0309094
332 2 0.997717 0.289607 0.0321603
37 2 0.0402033 0.362286 0.0265541
173 2 0.76392 0.390979 0.0260711
215 2 0.633896 0.468339 0.0238938
334 2 0.0179136 0.0563927 0.0436736
129 2 0.06094 0.170612 0.0441329
52 2 0.231963 0.286468 0.0534302
292 2 0.324803 0.298542 0.0528571
50 2 0.12544 0.51323 0.0468288
277 2 0.779209 0.514265 0.0465156
285 2 0.195298 0.00926203 0.0682657
76 2 0.966158 0.985348 0.0511762
61 2 0.857025 0.176758 0.0624169
170 2 0.044442 0.273898 0.0617799
94 2 0.825156 0.441906 0.062546
243 2 0.977503 0.49042 0.0766622
158 2 0.319821 0.539567 0.069453
4 2 0.440686 0.636789 0.0738868
138 2 0.403737 0.641595 0.0771906
326 2 0.785114 0.667421 0.0728782
40 2 0.939598 0.0801477 0.0818063
100 2 0.677893 0.268868 0.0983574
343 2 0.745125 0.400841 0.087739
55 2 0.176694 0.47204 0.0867896
362 2 0.586436 0.521502 0.0823009
370 2 0.970301 0.908146 0.0940668
115 2 0.517779 0.0734314 0.113685
348 2 0.984865 0.0898832 0.115278
146 2 0.608711 0.111926 0.110393
202 2 0.786958 0.102736 0.100853
112 2 0.281078 0.237386 0.102742
333 2 0.256337 0.512005 0.115979
344 2 0.120582 0.552646 0.110426
175 2 0.134505 0.607525 0.112688
287 2 0.920358 0.697932 0.105091
305 2 0.630157 0.905244 0.104142
218 2 0.761543 0.923178 0.119725
354 2 0.693954 0.00234846 0.120735
271 2 0.23327 0.0698603 0.132949
151 2 0.277057 0.166819 0.139799
393 2 0.874273 0.184365 0.121938
310 2 0.79198 0.238708 0.127113
345 2 0.366031 0.249384 0.136195
361 2 0.726879 0.322032 0.122739
313 2 0.91052 0.447984 0.122187
169 2 0.201339 0.752393 0.136993
228 2 0.904654 0.773747 0.134893
7 2 0.967893 0.0773281 0.150619
45 2 0.765745 0.271678 0.140045
166 2 0.00581134 0.344994 0.145759
73 2 0.681011 0.0496834 0.168784
5 2 0.659738 0.138781 0.165732
23 2 0.124741 0.527127 0.177067
330 2 0.575465 0.573821 0.12727
366 2 0.0302878 0.749741 0.163109
140 2 0.779073 0.972062 0.163269
352 2 0.553604 0.177261 0.194878
245 2 0.323733 0.479948 0.184159
399 2 0.765653 0.530819 0.191104
10 2 0.218387 0.622689 0.183475
155 2 0.632527 0.770973 0.195955