LAMMPS (28 Jul 2015)
WARNING: OMP_NUM_THREADS environment is not set. (../comm.cpp:89)
  using 1 OpenMP thread(s) per MPI task
# REAX potential for CHO system
# .....

units		real
atom_style	charge

#read_data	./data.CHO

############### Create initial box and atoms #############################
dimension 3
region boite block 0 100 0 100 0 100
boundary p p p
create_box   3 boite
Created orthogonal box = (0 0 0) to (100 100 100)
  1 by 1 by 1 MPI processor grid
create_atoms 2 random 400 123456 NULL
Created 400 atoms
mass 1 1.0080
mass 2 12.0107
mass 3 15.9994

pair_style lj/cut 2.0
pair_coeff * * 0.07 5.55

velocity all create 300.0 1592015 rot yes dist gaussian

fix              1 all nve/limit 0.01
fix              2 all temp/berendsen 300.0 300.0 1.0

compute  2       all cluster/atom 1.5

timestep	0.1

#thermo_style multi
#thermo_style custom step  temp etotal v_etotalSI epair ebond pe ke
thermo_style custom step temp pe press density

thermo 30000

dump		1 all atom 30000 dump.file

run		500000
Neighbor list info ...
  2 neighbor list requests
  update every 1 steps, delay 10 steps, check yes
  master list distance cutoff = 4
  ghost atom cutoff = 4
Memory usage per processor = 4.36783 Mbytes
Step Temp PotEng Press Density 
       0          300 1.1297239e+08     30986777 0.0079776939 
   30000          300            0    16.310276 0.0079776939 
   60000          300            0    16.310276 0.0079776939 
   90000          300            0    16.310276 0.0079776939 
  120000          300            0    16.310276 0.0079776939 
  150000          300            0    16.310276 0.0079776939 
  180000          300            0    16.310276 0.0079776939 
  210000          300            0    16.310276 0.0079776939 
  240000          300            0    16.310276 0.0079776939 
  270000          300            0    16.310276 0.0079776939 
  300000          300            0    16.310276 0.0079776939 
  330000          300            0    16.310276 0.0079776939 
  360000          300            0    16.310276 0.0079776939 
  390000          300            0    16.310276 0.0079776939 
  420000          300            0    16.310276 0.0079776939 
  450000          300            0    16.310276 0.0079776939 
  480000          300            0    16.310276 0.0079776939 
  500000          300            0    16.310276 0.0079776939 
Loop time of 10.1451 on 1 procs (1 MPI x 1 OpenMP) for 500000 steps with 400 atoms

Pair  time (%) = 1.33641 (13.1729)
Neigh time (%) = 0.743299 (7.32667)
Comm  time (%) = 1.17882 (11.6196)
Outpt time (%) = 0.00819945 (0.0808218)
Other time (%) = 6.87838 (67.8)

Nlocal:    400 ave 400 max 400 min
Histogram: 1 0 0 0 0 0 0 0 0 0
Nghost:    94 ave 94 max 94 min
Histogram: 1 0 0 0 0 0 0 0 0 0
Neighs:    19 ave 19 max 19 min
Histogram: 1 0 0 0 0 0 0 0 0 0
FullNghs:  0 ave 0 max 0 min
Histogram: 1 0 0 0 0 0 0 0 0 0

Total # of neighbors = 19
Ave neighs/atom = 0.0475
Neighbor list builds = 3875
Dangerous builds = 0


# Pour éviter un effet mémoire sur les paires dans VMD : refaire une simulation à nvt
#reset_timestep 0

#unfix 1
#fix             1 all nvt temp 300.0 300.0 10.0

#dump		1 all atom 30000 dump.file
#dump 		2 all cfg 30000 ./dump/dump.tensile_*.cfg mass type xs ys zs mass q c_2

#restart 250000 ./restart/cinit.restart


#run		500000

write_data resu.CHO








