LAMMPS (7 Feb 2024 - Update 1)
OMP_NUM_THREADS environment is not set. Defaulting to 1 thread. (src/comm.cpp:98)
  using 1 OpenMP thread(s) per MPI task
#============Initialization==============
units 			real
atom_style 		atomic

#==============Box=======================
boundary 		p p p
region 			mybox block 0 100 0 100 0 100
create_box  	1 mybox
Created orthogonal box = (0 0 0) to (100 100 100)
  1 by 1 by 1 MPI processor grid

#============Atoms=======================
create_atoms 	1 random 10 12345 mybox
Created 10 atoms
  using lattice units in orthogonal box = (0 0 0) to (100 100 100)
  create_atoms CPU = 0.003 seconds
labelmap 		atom 1 H
mass 			H 1.0

#=========Velocity initialization===================
velocity 		all create 0.001 12345 rot yes dist gaussian

#======Pair style for atom interactions=============
pair_style 		lj/cut 2.5
pair_coeff 		* * 1 1

#====Fixes for time integration and constraints=====
fix 			1 all nve
fix 			2 all temp/berendsen 300.0 300.0 100.0

#===========Timestep================================
timestep 		1.0

#========System temperature printing info===========
thermo_style 	custom step temp etotal pe
thermo 			1000

#===============Define dump command=================
dump 			2 all cfg 5000 ./dump/dump.tensile_*.cfg mass type xs ys zs vx vy vz id

#================Run simulation=====================
run 			50000
Generated 0 of 0 mixed pair_coeff terms from geometric mixing rule
Neighbor list info ...
  update: every = 1 steps, delay = 0 steps, check = yes
  max neighbors/atom: 2000, page size: 100000
  master list distance cutoff = 4.5
  ghost atom cutoff = 4.5
  binsize = 2.25, bins = 45 45 45
  1 neighbor lists, perpetual/occasional/extra = 1 0 0
  (1) pair lj/cut, perpetual
      attributes: half, newton on
      pair build: half/bin/atomonly/newton
      stencil: half/bin/3d
      bin: standard
Per MPI rank memory allocation (min/avg/max) = 3.533 | 3.533 | 3.533 Mbytes
   Step          Temp          TotEng         PotEng    
         0   0.001          2.682729e-05   0            
      1000   299.98705      8.0478397      0            
      2000   299.99999      8.0481869      0            
      3000   300            8.0481871      0            
      4000   300            8.0481871      0            
      5000   300            8.0481871      0            
      6000   300            8.0481871      0            
      7000   300            8.0481871      0            
      8000   303.24218      8.0255926     -0.10957336   
      9000   299.9998       8.0481819      0            
     10000   300            8.0481871      0            
     11000   300            8.0481871      0            
     12000   300            8.0481871      0            
     13000   300            8.0481871      0            
     14000   300            8.0481871      0            
     15000   300            8.0481871      0            
     16000   300            8.0481871      0            
     17000   300            8.0481871      0            
     18000   300            8.0481871      0            
     19000   300            8.0481871      0            
     20000   300            8.0481871      0            
     21000   300            8.0481871      0            
     22000   300            8.0481871      0            
     23000   300            8.0481871      0            
     24000   300            8.0481871      0            
     25000   300            8.0481871      0            
     26000   300            8.0481871      0            
     27000   300            8.0481871      0            
     28000   300            8.0481871      0            
     29000   300            8.0481871      0            
     30000   300            8.0481871      0            
     31000   300            8.0481871      0            
     32000   300            8.0481871      0            
     33000   300            8.0481871      0            
     34000   300            8.0481871      0            
     35000   300            8.0481871      0            
     36000   300            8.0481871      0            
     37000   300            8.0481871      0            
     38000   300            8.0481871      0            
     39000   300            8.0481871      0            
     40000   300            8.0481871      0            
     41000   300            8.0481871      0            
     42000   300            8.0481871      0            
     43000   300            8.0481871      0            
     44000   300            8.0481871      0            
     45000   300            8.0481871      0            
     46000   300            8.0481871      0            
     47000   300            8.0481871      0            
     48000   300            8.0481871      0            
     49000   300            8.0481871      0            
     50000   300            8.0481871      0            
Loop time of 0.18954 on 1 procs for 50000 steps with 10 atoms

Performance: 22792.000 ns/day, 0.001 hours/ns, 263796.293 timesteps/s, 2.638 Matom-step/s
63.9% CPU use with 1 MPI tasks x 1 OpenMP threads

MPI task timing breakdown:
Section |  min time  |  avg time  |  max time  |%varavg| %total
---------------------------------------------------------------
Pair    | 0.003657   | 0.003657   | 0.003657   |   0.0 |  1.93
Neigh   | 0.084454   | 0.084454   | 0.084454   |   0.0 | 44.56
Comm    | 0.012033   | 0.012033   | 0.012033   |   0.0 |  6.35
Output  | 0.061211   | 0.061211   | 0.061211   |   0.0 | 32.29
Modify  | 0.014832   | 0.014832   | 0.014832   |   0.0 |  7.83
Other   |            | 0.01335    |            |       |  7.04

Nlocal:             10 ave          10 max          10 min
Histogram: 1 0 0 0 0 0 0 0 0 0
Nghost:              2 ave           2 max           2 min
Histogram: 1 0 0 0 0 0 0 0 0 0
Neighs:              0 ave           0 max           0 min
Histogram: 1 0 0 0 0 0 0 0 0 0

Total # of neighbors = 0
Ave neighs/atom = 0
Neighbor list builds = 1817
Dangerous builds = 0
Total wall time: 0:00:00
