# CHO example

14 atoms
3 atom types

-200.0 200.000 xlo xhi
-200.0 200.000 ylo yhi
-200.0 200.000 zlo zhi

Masses

1 1.0080
2 12.0107
3 15.9994

Atoms

1    2 0.0      -3.8126178112      1.6615790825      0.0000000007                 
2    2 0.0     -2.4734263072      2.3991571400     -0.0000000011                 
3    2 0.0     -1.2049067441      1.5645274360      0.0000000034                 
4    2 0.0     -3.8658919943      0.1300938757     -0.0000000007                 
5    2 0.0     -2.5802736305     -0.6967158115      0.0000000011                 
6    2 0.0     -1.2596572172      0.0492893323     -0.0000000034                 
7    2 0.0      0.1133936246      2.3305263000     -0.0000000016                 
8    2 0.0      1.3743019724      1.4709269028      0.0000000032                 
9    2 0.0      1.3173397846     -0.0442281425     -0.0000000032                 
10  2 0.0       0.0001882718     -0.8090175449      0.0000000017                 
11  2 0.0       2.6986657963      2.2115059299     -0.0000000011                 
12   2 0.0      3.9814457075      1.3787914205      0.0000000006                 
13   2 0.0      3.9233213010     -0.1525164354     -0.0000000006                 
14   2 0.0      2.5817242727     -0.8840027437      0.0000000011                 

