# CHO example

14 atoms
3 atom types

-200.0 200.000 xlo xhi
-200.0 200.000 ylo yhi
-200.0 200.000 zlo zhi

Masses

1 1.0080
2 12.0107
3 15.9994

Atoms

1   2  0.0     -6.0652785987      0.6445242145     -0.1809702686                 
2   2  0.0    -4.8037720067      1.2631778136      0.3834065362                 
3   2  0.0    -3.5957000714      0.5872613231     -0.2284377408                 
4   2  0.0    -2.3308497772      1.1690397357      0.3673554742                 
5   2  0.0    -1.1310415012      0.5120177242     -0.2794495479                 
6   2  0.0     0.1444275106      1.0393796057      0.3436514227                 
7   2  0.0     1.3272358097      0.4256634204     -0.3731942295                 
8   2  0.0     2.6194755763      0.8589941192      0.2861957773                 
9   2  0.0     3.7784408027      0.2572357127     -0.4787056940                 
10  2  0.0     5.0768573519      0.5122345794      0.2563444425                 
11  2  0.0     6.2027904820     -0.1667252276     -0.4938530479                 
12  2 0.0      7.4742118840     -0.1104943943      0.3253865858                 
13  2 0.0      8.5628916597     -0.8790019047     -0.3934338108                 
14  2 0.0      9.8087216818     -0.9161726351      0.4657041009                 

