# CHO example

4 atoms
3 atom types

-200.0 200.000 xlo xhi
-200.0 200.000 ylo yhi
-200.0 200.000 zlo zhi

Masses

1 1.0080
2 12.0107
3 15.9994

Atoms

1 2 0.0           -10.2256321501      0.5065118275      3.1085949808                                         
2 2 0.0            -8.9403777747      0.6502251247      2.9323640649                                         
3 2 0.0            -7.6783614777      0.7913416372      2.7593176164                                         
4 2 0.0            -6.3931079910      0.9350582261      2.5830829041                                         

