ITEM: TIMESTEP
0
ITEM: NUMBER OF ATOMS
14
ITEM: BOX BOUNDS pp pp pp
-200 200
-200 200
-200 200
ITEM: ATOMS id type xs ys zs
11 2 0.515507 0.499583 0.498765
13 2 0.521407 0.497802 0.499016
1 2 0.484837 0.501611 0.499548
3 2 0.491011 0.501468 0.499429
5 2 0.497172 0.50128 0.499301
7 2 0.503318 0.501064 0.499067
9 2 0.509446 0.500643 0.498803
12 2 0.518686 0.499724 0.500813
14 2 0.524522 0.49771 0.501164
2 2 0.487991 0.503158 0.500959
4 2 0.494173 0.502923 0.500918
6 2 0.500361 0.502598 0.500859
8 2 0.506549 0.502147 0.500715
10 2 0.512692 0.501281 0.500641
ITEM: TIMESTEP
1000
ITEM: NUMBER OF ATOMS
14
ITEM: BOX BOUNDS pp pp pp
-200 200
-200 200
-200 200
ITEM: ATOMS id type xs ys zs
9 2 0.509793 0.499998 0.499956
10 2 0.513093 0.499859 0.49986
11 2 0.516565 0.499733 0.499804
13 2 0.523136 0.499373 0.499935
12 2 0.519609 0.499592 0.499837
1 2 0.483572 0.504254 0.499644
2 2 0.486617 0.503493 0.499842
14 2 0.526264 0.499149 0.500034
3 2 0.489956 0.50269 0.500041
5 2 0.496497 0.501358 0.500283
4 2 0.493204 0.501977 0.500198
6 2 0.499797 0.500856 0.500282
7 2 0.503122 0.50047 0.500204
8 2 0.506446 0.500192 0.500081
ITEM: TIMESTEP
2000
ITEM: NUMBER OF ATOMS
14
ITEM: BOX BOUNDS pp pp pp
-200 200
-200 200
-200 200
ITEM: ATOMS id type xs ys zs
9 2 0.509846 0.500733 0.499912
10 2 0.513106 0.5002 0.499993
11 2 0.516535 0.499648 0.500048
13 2 0.523001 0.498432 0.500143
12 2 0.51954 0.499133 0.500087
1 2 0.483408 0.502214 0.500464
2 2 0.486548 0.502278 0.500289
14 2 0.526065 0.497759 0.500204
3 2 0.489974 0.502363 0.500084
5 2 0.496609 0.502435 0.499735
4 2 0.493276 0.502444 0.499889
6 2 0.499951 0.502235 0.499661
7 2 0.503262 0.501829 0.499693
8 2 0.506551 0.50129 0.499797
ITEM: TIMESTEP
3000
ITEM: NUMBER OF ATOMS
14
ITEM: BOX BOUNDS pp pp pp
-200 200
-200 200
-200 200
ITEM: ATOMS id type xs ys zs
10 2 0.513044 0.500414 0.499485
11 2 0.516407 0.499504 0.499752
13 2 0.522686 0.497703 0.500607
12 2 0.519331 0.498711 0.500089
14 2 0.52564 0.496776 0.501119
1 2 0.483758 0.500557 0.500797
2 2 0.486803 0.501316 0.500583
3 2 0.490133 0.502139 0.500302
5 2 0.496678 0.503278 0.499718
4 2 0.493362 0.502836 0.500007
6 2 0.500025 0.503324 0.499517
9 2 0.509843 0.501308 0.499333
7 2 0.50334 0.502934 0.499374
8 2 0.506621 0.502194 0.499316
ITEM: TIMESTEP
4000
ITEM: NUMBER OF ATOMS
14
ITEM: BOX BOUNDS pp pp pp
-200 200
-200 200
-200 200
ITEM: ATOMS id type xs ys zs
11 2 0.516689 0.500311 0.499951
13 2 0.522944 0.498263 0.50022
12 2 0.519622 0.499487 0.500064
14 2 0.525866 0.497124 0.500364
1 2 0.483371 0.50321 0.500453
2 2 0.486474 0.502726 0.500282
10 2 0.513153 0.500939 0.499823
9 2 0.510121 0.50127 0.499783
3 2 0.489886 0.502242 0.500084
5 2 0.496539 0.501524 0.499788
4 2 0.493197 0.501827 0.499904
6 2 0.499909 0.501377 0.499743
7 2 0.503282 0.501354 0.499767
8 2 0.506617 0.501336 0.499775
ITEM: TIMESTEP
5000
ITEM: NUMBER OF ATOMS
14
ITEM: BOX BOUNDS pp pp pp
-200 200
-200 200
-200 200
ITEM: ATOMS id type xs ys zs
11 2 0.515947 0.500114 0.499835
5 2 0.496425 0.499579 0.50078
10 2 0.512456 0.49948 0.500228
9 2 0.509463 0.498983 0.500457
6 2 0.499345 0.498734 0.500923
7 2 0.502902 0.498372 0.500842
8 2 0.505933 0.498507 0.500668
13 2 0.522488 0.500953 0.499364
12 2 0.518938 0.500564 0.499569
14 2 0.525605 0.501232 0.499193
1 2 0.485948 0.50729 0.498584
2 2 0.488169 0.505175 0.499252
3 2 0.490795 0.502856 0.499899
4 2 0.493258 0.501153 0.500408
ITEM: TIMESTEP
6000
ITEM: NUMBER OF ATOMS
14
ITEM: BOX BOUNDS pp pp pp
-200 200
-200 200
-200 200
ITEM: ATOMS id type xs ys zs
14 2 0.525825 0.497696 0.50018
1 2 0.484086 0.500519 0.501045
2 2 0.486985 0.501585 0.500473
10 2 0.512714 0.499914 0.500134
9 2 0.50979 0.500727 0.500007
11 2 0.5162 0.499072 0.500201
13 2 0.52271 0.498054 0.500165
12 2 0.519195 0.498556 0.500187
5 2 0.496863 0.503443 0.499316
6 2 0.499886 0.503166 0.499383
7 2 0.503422 0.502515 0.499647
8 2 0.50636 0.501784 0.499846
3 2 0.49034 0.502673 0.499883
4 2 0.493295 0.50329 0.499533
ITEM: TIMESTEP
7000
ITEM: NUMBER OF ATOMS
14
ITEM: BOX BOUNDS pp pp pp
-200 200
-200 200
-200 200
ITEM: ATOMS id type xs ys zs
5 2 0.496815 0.502686 0.499866
6 2 0.499825 0.5023 0.499884
4 2 0.493221 0.502935 0.499931
9 2 0.509868 0.500062 0.499976
7 2 0.503374 0.501584 0.499836
8 2 0.506318 0.50086 0.499917
14 2 0.526138 0.499103 0.499803
11 2 0.516406 0.498956 0.500144
13 2 0.52301 0.498936 0.49997
12 2 0.519442 0.498826 0.500119
1 2 0.483556 0.502026 0.500239
2 2 0.486665 0.50243 0.500191
3 2 0.490189 0.502802 0.50006
10 2 0.512845 0.499489 0.500065
ITEM: TIMESTEP
8000
ITEM: NUMBER OF ATOMS
14
ITEM: BOX BOUNDS pp pp pp
-200 200
-200 200
-200 200
ITEM: ATOMS id type xs ys zs
10 2 0.512795 0.497952 0.500645
5 2 0.496929 0.501346 0.500232
6 2 0.499809 0.500409 0.500453
4 2 0.493515 0.502421 0.499951
9 2 0.509776 0.498021 0.500864
7 2 0.503273 0.499395 0.500709
8 2 0.506203 0.498632 0.50085
14 2 0.525237 0.502247 0.498883
11 2 0.516322 0.498566 0.500182
13 2 0.522405 0.500952 0.499267
12 2 0.519144 0.499596 0.499723
1 2 0.484373 0.505655 0.499111
2 2 0.487272 0.504494 0.499399
3 2 0.490616 0.503306 0.499729
ITEM: TIMESTEP
9000
ITEM: NUMBER OF ATOMS
14
ITEM: BOX BOUNDS pp pp pp
-200 200
-200 200
-200 200
ITEM: ATOMS id type xs ys zs
12 2 0.518424 0.498579 0.50025
1 2 0.485013 0.498508 0.501342
4 2 0.493798 0.502459 0.499983
2 2 0.487825 0.499834 0.500923
3 2 0.491005 0.50132 0.500348
14 2 0.522975 0.49384 0.501462
13 2 0.52086 0.496097 0.500942
10 2 0.513138 0.502386 0.499291
9 2 0.510334 0.503504 0.499017
7 2 0.503817 0.504372 0.498968
8 2 0.50684 0.50429 0.498777
11 2 0.51612 0.500492 0.499712
5 2 0.49728 0.503366 0.499648
6 2 0.500241 0.503944 0.499336
ITEM: TIMESTEP
10000
ITEM: NUMBER OF ATOMS
14
ITEM: BOX BOUNDS pp pp pp
-200 200
-200 200
-200 200
ITEM: ATOMS id type xs ys zs
4 2 0.493757 0.50115 0.500088
5 2 0.496511 0.499003 0.500793
9 2 0.509143 0.499061 0.500767
7 2 0.502817 0.497325 0.50146
8 2 0.505791 0.497863 0.501316
6 2 0.499269 0.497825 0.501228
1 2 0.486838 0.507811 0.498645
2 2 0.489006 0.505575 0.499007
12 2 0.518488 0.501103 0.49944
14 2 0.525061 0.501054 0.498457
13 2 0.521962 0.501078 0.498951
11 2 0.515488 0.500896 0.499898
3 2 0.491556 0.50318 0.49954
10 2 0.511984 0.50007 0.500409
ITEM: TIMESTEP
11000
ITEM: NUMBER OF ATOMS
14
ITEM: BOX BOUNDS pp pp pp
-200 200
-200 200
-200 200
ITEM: ATOMS id type xs ys zs
1 2 0.483525 0.501741 0.500589
2 2 0.486638 0.502093 0.500402
3 2 0.490155 0.50251 0.500057
12 2 0.519508 0.499152 0.500022
14 2 0.525763 0.496795 0.500267
13 2 0.522844 0.497935 0.500098
5 2 0.496788 0.502537 0.499654
6 2 0.499807 0.502243 0.49966
9 2 0.510031 0.50113 0.499941
7 2 0.503404 0.501909 0.499771
8 2 0.506412 0.501555 0.499878
10 2 0.513031 0.500688 0.49987
4 2 0.493178 0.502717 0.499828
11 2 0.516586 0.499988 0.499965
ITEM: TIMESTEP
12000
ITEM: NUMBER OF ATOMS
14
ITEM: BOX BOUNDS pp pp pp
-200 200
-200 200
-200 200
ITEM: ATOMS id type xs ys zs
12 2 0.519218 0.498675 0.500056
5 2 0.496832 0.503209 0.499618
6 2 0.499859 0.503051 0.499601
4 2 0.493223 0.502976 0.499677
9 2 0.50992 0.501313 0.499834
7 2 0.503464 0.502662 0.499573
8 2 0.506472 0.502266 0.499538
10 2 0.512793 0.500343 0.500027
11 2 0.516244 0.499298 0.499989
14 2 0.525763 0.497281 0.500349
13 2 0.522699 0.497941 0.50021
1 2 0.484043 0.500152 0.501058
2 2 0.486904 0.50133 0.500533
3 2 0.490238 0.502494 0.499936
ITEM: TIMESTEP
13000
ITEM: NUMBER OF ATOMS
14
ITEM: BOX BOUNDS pp pp pp
-200 200
-200 200
-200 200
ITEM: ATOMS id type xs ys zs
5 2 0.497598 0.501562 0.500536
6 2 0.500189 0.500021 0.500872
4 2 0.494383 0.50311 0.499987
9 2 0.509648 0.496518 0.501099
7 2 0.503227 0.498107 0.501276
8 2 0.506074 0.497079 0.501238
10 2 0.512644 0.496853 0.500876
11 2 0.515913 0.498355 0.500428
12 2 0.51832 0.500094 0.499783
14 2 0.523492 0.503993 0.498097
13 2 0.521111 0.502108 0.498886
1 2 0.485181 0.505721 0.498567
2 2 0.488251 0.505164 0.498885
3 2 0.491638 0.504308 0.49947
ITEM: TIMESTEP
14000
ITEM: NUMBER OF ATOMS
14
ITEM: BOX BOUNDS pp pp pp
-200 200
-200 200
-200 200
ITEM: ATOMS id type xs ys zs
1 2 0.486731 0.497024 0.502207
2 2 0.489075 0.49891 0.50132
3 2 0.491742 0.501094 0.500396
12 2 0.517629 0.497968 0.500305
14 2 0.522195 0.493338 0.501835
13 2 0.520082 0.495552 0.501138
6 2 0.500206 0.505414 0.498949
9 2 0.510014 0.503658 0.498823
7 2 0.503767 0.505634 0.498552
8 2 0.506752 0.505126 0.498503
10 2 0.51258 0.502085 0.499206
11 2 0.515376 0.499951 0.499823
5 2 0.497352 0.504442 0.499208
4 2 0.494169 0.502797 0.499733
ITEM: TIMESTEP
15000
ITEM: NUMBER OF ATOMS
14
ITEM: BOX BOUNDS pp pp pp
-200 200
-200 200
-200 200
ITEM: ATOMS id type xs ys zs
3 2 0.491677 0.502955 0.499513
6 2 0.499252 0.497507 0.501643
5 2 0.496567 0.498779 0.501019
4 2 0.493746 0.500821 0.500153
9 2 0.508961 0.498492 0.500633
7 2 0.502692 0.496851 0.501962
8 2 0.505622 0.497426 0.50145
1 2 0.488332 0.508633 0.498393
2 2 0.48993 0.505995 0.498956
11 2 0.515041 0.50088 0.499631
12 2 0.518038 0.501303 0.499356
14 2 0.524606 0.501982 0.498411
13 2 0.52152 0.501694 0.498894
10 2 0.511687 0.499675 0.499985
ITEM: TIMESTEP
16000
ITEM: NUMBER OF ATOMS
14
ITEM: BOX BOUNDS pp pp pp
-200 200
-200 200
-200 200
ITEM: ATOMS id type xs ys zs
3 2 0.490665 0.50222 0.500088
1 2 0.484828 0.499255 0.501445
2 2 0.48752 0.500702 0.500741
11 2 0.515956 0.499212 0.500295
12 2 0.518797 0.498142 0.500393
14 2 0.525193 0.49613 0.500604
13 2 0.522173 0.496978 0.500524
6 2 0.499928 0.504082 0.49918
5 2 0.496902 0.504177 0.499365
9 2 0.509775 0.501633 0.499627
7 2 0.5035 0.503653 0.498994
8 2 0.506428 0.502875 0.499155
10 2 0.512582 0.500551 0.500009
4 2 0.493424 0.503384 0.49958
ITEM: TIMESTEP
17000
ITEM: NUMBER OF ATOMS
14
ITEM: BOX BOUNDS pp pp pp
-200 200
-200 200
-200 200
ITEM: ATOMS id type xs ys zs
6 2 0.499836 0.50124 0.499894
5 2 0.496919 0.502048 0.49972
4 2 0.493392 0.502909 0.49971
9 2 0.509903 0.499073 0.500546
7 2 0.503343 0.500429 0.500292
8 2 0.506282 0.499712 0.500465
10 2 0.512899 0.49863 0.500643
11 2 0.516515 0.498638 0.50054
12 2 0.519493 0.499114 0.500191
14 2 0.525483 0.501569 0.498625
13 2 0.522799 0.500213 0.499516
1 2 0.483654 0.503245 0.500049
3 2 0.490367 0.503093 0.499864
2 2 0.486786 0.503078 0.499946
ITEM: TIMESTEP
18000
ITEM: NUMBER OF ATOMS
14
ITEM: BOX BOUNDS pp pp pp
-200 200
-200 200
-200 200
ITEM: ATOMS id type xs ys zs
6 2 0.499726 0.500348 0.500459
5 2 0.496725 0.500789 0.500418
4 2 0.493118 0.501451 0.500287
3 2 0.490252 0.502375 0.499925
7 2 0.503317 0.50012 0.500313
14 2 0.525493 0.49727 0.500309
13 2 0.522696 0.498671 0.500041
9 2 0.509918 0.500874 0.500089
10 2 0.512937 0.501008 0.49983
11 2 0.516523 0.500852 0.499627
12 2 0.519438 0.499994 0.499682
1 2 0.484166 0.505103 0.499277
2 2 0.487012 0.503816 0.499556
8 2 0.506349 0.500321 0.500187
ITEM: TIMESTEP
19000
ITEM: NUMBER OF ATOMS
14
ITEM: BOX BOUNDS pp pp pp
-200 200
-200 200
-200 200
ITEM: ATOMS id type xs ys zs
12 2 0.51899 0.49926 0.500009
1 2 0.483997 0.500905 0.500364
3 2 0.490679 0.501251 0.500592
2 2 0.487128 0.501058 0.500519
10 2 0.513184 0.502197 0.499003
11 2 0.516457 0.500833 0.499423
14 2 0.523768 0.494838 0.501516
13 2 0.521625 0.497019 0.500804
6 2 0.500229 0.502497 0.499726
5 2 0.49721 0.50223 0.499946
4 2 0.493679 0.501685 0.500296
7 2 0.503725 0.502962 0.499605
9 2 0.51027 0.503045 0.498947
8 2 0.506731 0.503213 0.499248
ITEM: TIMESTEP
20000
ITEM: NUMBER OF ATOMS
14
ITEM: BOX BOUNDS pp pp pp
-200 200
-200 200
-200 200
ITEM: ATOMS id type xs ys zs
12 2 0.517263 0.500524 0.499465
10 2 0.512336 0.496479 0.501091
7 2 0.503423 0.497008 0.501536
9 2 0.509665 0.495175 0.501615
8 2 0.506194 0.495806 0.501821
11 2 0.515085 0.498632 0.500439
14 2 0.521566 0.505248 0.497767
13 2 0.519451 0.503105 0.498668
1 2 0.486638 0.507038 0.497714
3 2 0.492628 0.504618 0.499607
2 2 0.489452 0.506004 0.498635
5 2 0.498176 0.501007 0.500506
4 2 0.495173 0.503043 0.500098
6 2 0.500621 0.499306 0.501039
ITEM: TIMESTEP
21000
ITEM: NUMBER OF ATOMS
14
ITEM: BOX BOUNDS pp pp pp
-200 200
-200 200
-200 200
ITEM: ATOMS id type xs ys zs
1 2 0.488991 0.496217 0.502821
3 2 0.492694 0.501035 0.500078
2 2 0.490845 0.498312 0.501404
12 2 0.516775 0.49738 0.500394
14 2 0.521562 0.493137 0.502228
13 2 0.519165 0.494955 0.501363
10 2 0.511906 0.501742 0.499518
7 2 0.503543 0.506357 0.498289
9 2 0.509522 0.503542 0.498993
8 2 0.506402 0.505393 0.498542
6 2 0.499987 0.50653 0.498464
11 2 0.514568 0.499372 0.499734
5 2 0.497084 0.505736 0.498758
4 2 0.494626 0.503286 0.499414
ITEM: TIMESTEP
22000
ITEM: NUMBER OF ATOMS
14
ITEM: BOX BOUNDS pp pp pp
-200 200
-200 200
-200 200
ITEM: ATOMS id type xs ys zs
11 2 0.514459 0.501313 0.499805
6 2 0.498787 0.496219 0.50217
5 2 0.496289 0.497822 0.501647
4 2 0.494334 0.500509 0.500486
10 2 0.511135 0.500087 0.500331
7 2 0.502287 0.496442 0.501719
9 2 0.508425 0.49882 0.500803
8 2 0.505155 0.497364 0.501309
1 2 0.49054 0.508943 0.497739
2 2 0.491459 0.50606 0.498594
12 2 0.517266 0.502027 0.498938
14 2 0.523953 0.502211 0.498434
13 2 0.520822 0.502207 0.498412
3 2 0.49276 0.50297 0.499612
ITEM: TIMESTEP
23000
ITEM: NUMBER OF ATOMS
14
ITEM: BOX BOUNDS pp pp pp
-200 200
-200 200
-200 200
ITEM: ATOMS id type xs ys zs
1 2 0.485655 0.498356 0.501498
2 2 0.487809 0.500536 0.500831
3 2 0.490542 0.502696 0.500265
11 2 0.515983 0.499667 0.500436
12 2 0.5186 0.49819 0.500849
14 2 0.524619 0.495201 0.501079
13 2 0.521787 0.496545 0.501057
6 2 0.499892 0.504031 0.498847
5 2 0.496879 0.503816 0.499094
7 2 0.503551 0.503929 0.498799
9 2 0.50988 0.502119 0.49918
8 2 0.506526 0.503343 0.498929
4 2 0.493307 0.503622 0.499466
10 2 0.51264 0.500941 0.499669
ITEM: TIMESTEP
24000
ITEM: NUMBER OF ATOMS
14
ITEM: BOX BOUNDS pp pp pp
-200 200
-200 200
-200 200
ITEM: ATOMS id type xs ys zs
6 2 0.50007 0.50194 0.499545
5 2 0.497164 0.502639 0.499006
4 2 0.493572 0.502849 0.498867
7 2 0.503346 0.500875 0.500467
9 2 0.509688 0.499042 0.500878
8 2 0.506215 0.500002 0.500906
10 2 0.512666 0.498474 0.500939
1 2 0.484079 0.502695 0.501013
11 2 0.516202 0.498718 0.500698
12 2 0.519173 0.499236 0.500348
14 2 0.525376 0.501094 0.49871
13 2 0.52256 0.500032 0.499599
2 2 0.487002 0.502646 0.499885
3 2 0.490557 0.502752 0.499139
ITEM: TIMESTEP
25000
ITEM: NUMBER OF ATOMS
14
ITEM: BOX BOUNDS pp pp pp
-200 200
-200 200
-200 200
ITEM: ATOMS id type xs ys zs
14 2 0.525875 0.499697 0.499196
13 2 0.522765 0.49972 0.499609
6 2 0.499448 0.499557 0.500407
5 2 0.49648 0.500181 0.500277
4 2 0.49322 0.501648 0.499895
3 2 0.49052 0.503057 0.499701
7 2 0.502996 0.499363 0.500524
10 2 0.51264 0.499797 0.500783
11 2 0.516245 0.499965 0.500357
12 2 0.519265 0.499804 0.500005
1 2 0.48502 0.506541 0.49852
2 2 0.487562 0.504826 0.499185
9 2 0.50962 0.499528 0.500771
8 2 0.506016 0.499309 0.50077
ITEM: TIMESTEP
26000
ITEM: NUMBER OF ATOMS
14
ITEM: BOX BOUNDS pp pp pp
-200 200
-200 200
-200 200
ITEM: ATOMS id type xs ys zs
3 2 0.490806 0.501321 0.500776
1 2 0.484151 0.50029 0.501359
2 2 0.487246 0.500621 0.501021
14 2 0.522512 0.494262 0.502622
13 2 0.520932 0.496462 0.501038
6 2 0.500476 0.502654 0.499678
7 2 0.503991 0.503416 0.498978
10 2 0.513397 0.502686 0.498392
9 2 0.510516 0.503582 0.498254
8 2 0.506963 0.50386 0.498612
11 2 0.516536 0.500812 0.49897
12 2 0.518842 0.498999 0.499756
5 2 0.497513 0.502343 0.500135
4 2 0.493789 0.501685 0.500408
ITEM: TIMESTEP
27000
ITEM: NUMBER OF ATOMS
14
ITEM: BOX BOUNDS pp pp pp
-200 200
-200 200
-200 200
ITEM: ATOMS id type xs ys zs
12 2 0.516309 0.500701 0.499462
6 2 0.501 0.499054 0.50097
7 2 0.503505 0.496564 0.501298
10 2 0.512461 0.495954 0.501851
9 2 0.509707 0.494815 0.502269
8 2 0.506288 0.495408 0.501636
11 2 0.514906 0.498283 0.500694
14 2 0.519298 0.505855 0.4966
13 2 0.51803 0.503397 0.498092
1 2 0.487723 0.507996 0.498922
3 2 0.493538 0.504751 0.499096
2 2 0.490494 0.506512 0.498831
5 2 0.498469 0.500696 0.500554
4 2 0.495943 0.503008 0.499726
ITEM: TIMESTEP
28000
ITEM: NUMBER OF ATOMS
14
ITEM: BOX BOUNDS pp pp pp
-200 200
-200 200
-200 200
ITEM: ATOMS id type xs ys zs
1 2 0.48806 0.497122 0.504658
3 2 0.492737 0.500665 0.501554
2 2 0.490099 0.498841 0.503011
4 2 0.495116 0.502065 0.50027
12 2 0.516708 0.498695 0.501225
14 2 0.520486 0.493691 0.503388
13 2 0.518718 0.496059 0.502348
6 2 0.500649 0.5044 0.497367
7 2 0.503704 0.505575 0.49583
10 2 0.512097 0.502492 0.498549
9 2 0.509698 0.5039 0.497312
8 2 0.506688 0.505411 0.495783
11 2 0.514805 0.500706 0.499998
5 2 0.498108 0.50337 0.498707
ITEM: TIMESTEP
29000
ITEM: NUMBER OF ATOMS
14
ITEM: BOX BOUNDS pp pp pp
-200 200
-200 200
-200 200
ITEM: ATOMS id type xs ys zs
11 2 0.514515 0.502002 0.500327
5 2 0.497389 0.498245 0.501059
6 2 0.499576 0.496401 0.502018
7 2 0.502975 0.496417 0.503051
10 2 0.511499 0.50077 0.501905
9 2 0.508829 0.499574 0.502654
8 2 0.505644 0.497853 0.503093
1 2 0.488878 0.507969 0.49785
2 2 0.490927 0.505628 0.498358
12 2 0.516873 0.502331 0.498458
14 2 0.52249 0.500592 0.495328
13 2 0.519848 0.50134 0.496859
3 2 0.493106 0.503018 0.499128
4 2 0.495123 0.500853 0.499912
ITEM: TIMESTEP
30000
ITEM: NUMBER OF ATOMS
14
ITEM: BOX BOUNDS pp pp pp
-200 200
-200 200
-200 200
ITEM: ATOMS id type xs ys zs
1 2 0.486728 0.499091 0.504654
2 2 0.488553 0.500395 0.502475
3 2 0.490991 0.501734 0.500162
12 2 0.518685 0.499251 0.500769
14 2 0.522841 0.494054 0.500985
13 2 0.520942 0.496541 0.501157
5 2 0.49688 0.503096 0.497549
6 2 0.499869 0.503434 0.497349
7 2 0.503436 0.50362 0.497852
9 2 0.509892 0.502763 0.499321
8 2 0.506351 0.503216 0.498562
4 2 0.493499 0.5026 0.498703
11 2 0.516218 0.500997 0.500461
10 2 0.512785 0.502201 0.500002
ITEM: TIMESTEP
31000
ITEM: NUMBER OF ATOMS
14
ITEM: BOX BOUNDS pp pp pp
-200 200
-200 200
-200 200
ITEM: ATOMS id type xs ys zs
5 2 0.496666 0.499828 0.498906
4 2 0.493246 0.500996 0.498861
6 2 0.499549 0.499264 0.499584
7 2 0.503113 0.49946 0.500508
9 2 0.509688 0.50008 0.501516
8 2 0.506052 0.499829 0.50113
10 2 0.512676 0.500494 0.501224
1 2 0.485045 0.50564 0.500992
12 2 0.519175 0.500525 0.499916
14 2 0.525627 0.499862 0.498382
13 2 0.522604 0.500182 0.499158
2 2 0.487571 0.504011 0.500097
3 2 0.490461 0.502175 0.499192
11 2 0.516198 0.500646 0.500534
ITEM: TIMESTEP
32000
ITEM: NUMBER OF ATOMS
14
ITEM: BOX BOUNDS pp pp pp
-200 200
-200 200
-200 200
ITEM: ATOMS id type xs ys zs
5 2 0.49695 0.501409 0.499517
6 2 0.499901 0.501081 0.500141
7 2 0.503337 0.500158 0.50106
14 2 0.525476 0.501406 0.497452
13 2 0.522598 0.500793 0.498536
4 2 0.493382 0.501671 0.499023
3 2 0.49037 0.501993 0.499213
1 2 0.484081 0.503603 0.500895
2 2 0.486943 0.502787 0.499912
9 2 0.509909 0.499138 0.501527
8 2 0.506222 0.499468 0.501632
10 2 0.512919 0.499256 0.501163
12 2 0.519232 0.500419 0.499592
11 2 0.516352 0.499811 0.500339
ITEM: TIMESTEP
33000
ITEM: NUMBER OF ATOMS
14
ITEM: BOX BOUNDS pp pp pp
-200 200
-200 200
-200 200
ITEM: ATOMS id type xs ys zs
5 2 0.496975 0.502824 0.499466
4 2 0.493449 0.502364 0.499819
3 2 0.490608 0.501664 0.500613
2 2 0.48732 0.500483 0.501559
14 2 0.524055 0.494817 0.49911
13 2 0.521688 0.496861 0.49912
12 2 0.51899 0.499173 0.499193
9 2 0.510218 0.502887 0.500024
8 2 0.506646 0.503207 0.499846
10 2 0.513179 0.502222 0.499991
11 2 0.516405 0.500703 0.49958
1 2 0.484511 0.499398 0.502417
6 2 0.500003 0.503122 0.499544
7 2 0.503623 0.503267 0.499719
ITEM: TIMESTEP
34000
ITEM: NUMBER OF ATOMS
14
ITEM: BOX BOUNDS pp pp pp
-200 200
-200 200
-200 200
ITEM: ATOMS id type xs ys zs
14 2 0.523728 0.502156 0.493911
13 2 0.521377 0.501294 0.495798
5 2 0.496761 0.499268 0.501697
4 2 0.493498 0.500698 0.501138
6 2 0.4997 0.498763 0.502179
8 2 0.506332 0.4986 0.50279
7 2 0.503322 0.498472 0.502765
11 2 0.515819 0.500261 0.499172
2 2 0.488657 0.504795 0.499989
1 2 0.486477 0.506952 0.499294
12 2 0.518526 0.500676 0.497854
3 2 0.490924 0.502235 0.500637
9 2 0.509884 0.499198 0.501943
10 2 0.512665 0.499625 0.500833
ITEM: TIMESTEP
35000
ITEM: NUMBER OF ATOMS
14
ITEM: BOX BOUNDS pp pp pp
-200 200
-200 200
-200 200
ITEM: ATOMS id type xs ys zs
2 2 0.489224 0.499597 0.503285
1 2 0.487487 0.497483 0.504808
14 2 0.523361 0.493965 0.498338
13 2 0.521174 0.496177 0.498742
11 2 0.515841 0.499991 0.49938
12 2 0.518396 0.498364 0.49916
5 2 0.496654 0.50514 0.499399
6 2 0.499608 0.505086 0.498823
8 2 0.50608 0.503368 0.498773
7 2 0.503239 0.504361 0.498594
9 2 0.509511 0.502142 0.499126
4 2 0.493378 0.503919 0.500455
3 2 0.491328 0.502172 0.501819
10 2 0.512391 0.50123 0.4993
ITEM: TIMESTEP
36000
ITEM: NUMBER OF ATOMS
14
ITEM: BOX BOUNDS pp pp pp
-200 200
-200 200
-200 200
ITEM: ATOMS id type xs ys zs
1 2 0.489921 0.508621 0.498876
11 2 0.51505 0.500242 0.498944
14 2 0.523185 0.503525 0.495012
13 2 0.520563 0.502114 0.495974
12 2 0.517551 0.501164 0.497485
5 2 0.496629 0.498709 0.502296
6 2 0.499151 0.497035 0.502103
8 2 0.50571 0.497252 0.501654
7 2 0.502684 0.496941 0.501786
9 2 0.509119 0.498182 0.501044
10 2 0.511827 0.499229 0.500186
2 2 0.490619 0.505954 0.50037
4 2 0.493891 0.500968 0.502456
3 2 0.49177 0.503057 0.501814
ITEM: TIMESTEP
37000
ITEM: NUMBER OF ATOMS
14
ITEM: BOX BOUNDS pp pp pp
-200 200
-200 200
-200 200
ITEM: ATOMS id type xs ys zs
1 2 0.487328 0.497046 0.504357
11 2 0.515581 0.50006 0.498596
14 2 0.522142 0.493019 0.500036
13 2 0.520237 0.49535 0.499186
12 2 0.517831 0.498044 0.498725
5 2 0.497144 0.504641 0.500122
6 2 0.50006 0.50529 0.499601
8 2 0.506462 0.504878 0.498272
7 2 0.503515 0.50547 0.498709
9 2 0.509849 0.503441 0.498345
10 2 0.512576 0.502141 0.4985
2 2 0.489349 0.498983 0.502974
4 2 0.493961 0.503143 0.50077
3 2 0.491637 0.501487 0.501807
ITEM: TIMESTEP
38000
ITEM: NUMBER OF ATOMS
14
ITEM: BOX BOUNDS pp pp pp
-200 200
-200 200
-200 200
ITEM: ATOMS id type xs ys zs
13 2 0.521305 0.50114 0.497349
12 2 0.518503 0.499196 0.498214
6 2 0.499807 0.499738 0.501836
8 2 0.506076 0.497527 0.501451
7 2 0.503203 0.498361 0.501847
9 2 0.509585 0.496807 0.500468
10 2 0.512465 0.496978 0.499572
11 2 0.515869 0.49781 0.498818
1 2 0.485767 0.507145 0.499124
2 2 0.488455 0.506004 0.500282
14 2 0.523578 0.502967 0.49616
5 2 0.497193 0.501309 0.501794
4 2 0.494237 0.503269 0.501776
3 2 0.491628 0.504741 0.501308
ITEM: TIMESTEP
39000
ITEM: NUMBER OF ATOMS
14
ITEM: BOX BOUNDS pp pp pp
-200 200
-200 200
-200 200
ITEM: ATOMS id type xs ys zs
10 2 0.512997 0.50207 0.497199
12 2 0.518559 0.49866 0.498463
11 2 0.516189 0.500412 0.497741
1 2 0.484702 0.501662 0.504097
2 2 0.487716 0.501781 0.503224
13 2 0.52091 0.496091 0.499241
14 2 0.522726 0.493687 0.500141
8 2 0.506585 0.502924 0.497753
7 2 0.503773 0.502614 0.498844
9 2 0.51013 0.50295 0.497024
5 2 0.497606 0.502808 0.501374
4 2 0.494158 0.502584 0.502072
3 2 0.491203 0.502157 0.502564
6 2 0.500416 0.502594 0.500264
ITEM: TIMESTEP
40000
ITEM: NUMBER OF ATOMS
14
ITEM: BOX BOUNDS pp pp pp
-200 200
-200 200
-200 200
ITEM: ATOMS id type xs ys zs
12 2 0.519153 0.498534 0.498436
13 2 0.522646 0.498163 0.498293
10 2 0.51274 0.500497 0.498602
8 2 0.506407 0.502404 0.499375
7 2 0.503405 0.502717 0.499535
9 2 0.509915 0.501392 0.499148
11 2 0.516168 0.499206 0.498473
14 2 0.525764 0.498183 0.497977
1 2 0.484244 0.500425 0.504144
2 2 0.487017 0.501167 0.502873
5 2 0.496757 0.502962 0.500347
4 2 0.49328 0.502394 0.501007
3 2 0.490427 0.501832 0.501894
6 2 0.49975 0.503117 0.499895
ITEM: TIMESTEP
41000
ITEM: NUMBER OF ATOMS
14
ITEM: BOX BOUNDS pp pp pp
-200 200
-200 200
-200 200
ITEM: ATOMS id type xs ys zs
12 2 0.512643 0.503437 0.496852
13 2 0.514987 0.505889 0.495645
11 2 0.511212 0.501191 0.498212
14 2 0.516651 0.508315 0.494571
10 2 0.509656 0.498349 0.49975
8 2 0.506503 0.4936 0.503268
7 2 0.503662 0.493125 0.503843
9 2 0.508468 0.496076 0.501357
1 2 0.494909 0.509683 0.499135
2 2 0.495371 0.50662 0.499626
5 2 0.499067 0.497643 0.502583
4 2 0.497572 0.50063 0.501266
3 2 0.496292 0.503254 0.500482
6 2 0.500678 0.495182 0.50341
ITEM: TIMESTEP
42000
ITEM: NUMBER OF ATOMS
14
ITEM: BOX BOUNDS pp pp pp
-200 200
-200 200
-200 200
ITEM: ATOMS id type xs ys zs
10 2 0.509464 0.50433 0.496959
1 2 0.500959 0.491542 0.504324
2 2 0.500389 0.494462 0.503268
12 2 0.509698 0.498225 0.499524
13 2 0.509435 0.495248 0.501527
11 2 0.509942 0.501047 0.498424
14 2 0.509064 0.492947 0.503616
5 2 0.500376 0.504053 0.499992
8 2 0.50602 0.50968 0.496644
7 2 0.503172 0.509182 0.497299
9 2 0.50847 0.507114 0.496506
6 2 0.500951 0.50671 0.498717
4 2 0.499986 0.50066 0.501154
3 2 0.499745 0.497793 0.502046
ITEM: TIMESTEP
43000
ITEM: NUMBER OF ATOMS
14
ITEM: BOX BOUNDS pp pp pp
-200 200
-200 200
-200 200
ITEM: ATOMS id type xs ys zs
12 2 0.516206 0.502557 0.496665
10 2 0.513522 0.497251 0.499677
11 2 0.515378 0.499854 0.497747
5 2 0.498034 0.498316 0.502531
8 2 0.507376 0.495474 0.50168
7 2 0.504461 0.495934 0.502163
9 2 0.511018 0.496155 0.500876
6 2 0.50079 0.497119 0.50233
1 2 0.488844 0.507484 0.500273
2 2 0.490779 0.505253 0.501267
13 2 0.516649 0.505829 0.495515
14 2 0.516698 0.508822 0.494506
3 2 0.492829 0.502485 0.502272
4 2 0.495088 0.500459 0.502496
ITEM: TIMESTEP
44000
ITEM: NUMBER OF ATOMS
14
ITEM: BOX BOUNDS pp pp pp
-200 200
-200 200
-200 200
ITEM: ATOMS id type xs ys zs
10 2 0.51226 0.500497 0.498356
11 2 0.515667 0.501533 0.497649
12 2 0.518526 0.502336 0.49705
13 2 0.521876 0.503219 0.496323
14 2 0.524843 0.503592 0.495394
5 2 0.496987 0.498662 0.502467
8 2 0.506369 0.498371 0.500895
7 2 0.503531 0.497762 0.501726
9 2 0.509702 0.499429 0.499591
6 2 0.499925 0.498115 0.502242
1 2 0.485519 0.505236 0.501955
2 2 0.488021 0.503354 0.501969
3 2 0.490874 0.501099 0.502052
4 2 0.49357 0.499787 0.502333
ITEM: TIMESTEP
45000
ITEM: NUMBER OF ATOMS
14
ITEM: BOX BOUNDS pp pp pp
-200 200
-200 200
-200 200
ITEM: ATOMS id type xs ys zs
9 2 0.508847 0.507463 0.497074
10 2 0.510562 0.504489 0.497794
11 2 0.511737 0.5013 0.498007
12 2 0.512532 0.498412 0.498691
13 2 0.513389 0.495392 0.500264
14 2 0.51399 0.492738 0.50183
5 2 0.499888 0.503425 0.500031
6 2 0.501541 0.505744 0.498993
4 2 0.498056 0.500612 0.501365
8 2 0.506321 0.509597 0.496409
7 2 0.50395 0.508123 0.497517
1 2 0.494516 0.492491 0.505462
2 2 0.495467 0.49512 0.504029
3 2 0.496874 0.498088 0.502536
ITEM: TIMESTEP
46000
ITEM: NUMBER OF ATOMS
14
ITEM: BOX BOUNDS pp pp pp
-200 200
-200 200
-200 200
ITEM: ATOMS id type xs ys zs
12 2 0.511426 0.503511 0.49755
9 2 0.509142 0.495149 0.501305
10 2 0.510691 0.497282 0.500129
11 2 0.511014 0.500673 0.498652
6 2 0.501081 0.495139 0.503142
8 2 0.506681 0.492906 0.502536
7 2 0.503755 0.492812 0.50322
1 2 0.497959 0.50985 0.498185
2 2 0.498493 0.506906 0.499144
3 2 0.499447 0.503595 0.499726
13 2 0.510258 0.506848 0.49676
14 2 0.50884 0.509617 0.496309
5 2 0.499771 0.497812 0.502339
4 2 0.499114 0.500893 0.501003
ITEM: TIMESTEP
47000
ITEM: NUMBER OF ATOMS
14
ITEM: BOX BOUNDS pp pp pp
-200 200
-200 200
-200 200
ITEM: ATOMS id type xs ys zs
10 2 0.511971 0.503764 0.497452
1 2 0.489043 0.494498 0.505767
2 2 0.490891 0.496612 0.504396
12 2 0.51638 0.498828 0.497813
11 2 0.514225 0.500942 0.497598
13 2 0.519096 0.496514 0.49827
14 2 0.521705 0.494937 0.499031
9 2 0.509641 0.505674 0.497254
6 2 0.500012 0.50491 0.499934
8 2 0.506098 0.506426 0.497782
7 2 0.503194 0.506102 0.498586
5 2 0.497565 0.503407 0.500842
3 2 0.492884 0.499169 0.503098
4 2 0.494965 0.50121 0.502177
ITEM: TIMESTEP
48000
ITEM: NUMBER OF ATOMS
14
ITEM: BOX BOUNDS pp pp pp
-200 200
-200 200
-200 200
ITEM: ATOMS id type xs ys zs
12 2 0.519131 0.499305 0.496911
13 2 0.522575 0.499249 0.496058
14 2 0.52563 0.499272 0.49536
10 2 0.512745 0.500634 0.498226
11 2 0.516144 0.499602 0.497452
9 2 0.509848 0.501367 0.498544
6 2 0.499866 0.50162 0.500899
8 2 0.506374 0.501996 0.499441
7 2 0.503472 0.502134 0.500241
1 2 0.483996 0.502219 0.50492
2 2 0.487014 0.501621 0.504322
3 2 0.49052 0.501304 0.503478
5 2 0.496942 0.501384 0.5016
4 2 0.493413 0.501287 0.502548
ITEM: TIMESTEP
49000
ITEM: NUMBER OF ATOMS
14
ITEM: BOX BOUNDS pp pp pp
-200 200
-200 200
-200 200
ITEM: ATOMS id type xs ys zs
10 2 0.512195 0.497122 0.499415
12 2 0.515909 0.501527 0.496597
11 2 0.514518 0.499231 0.497764
9 2 0.509958 0.49558 0.500641
8 2 0.506484 0.495199 0.501815
13 2 0.51482 0.504803 0.496142
14 2 0.513477 0.507602 0.495613
1 2 0.493365 0.509936 0.499672
6 2 0.500168 0.496365 0.50295
2 2 0.494293 0.507058 0.500354
3 2 0.495153 0.50387 0.501319
5 2 0.497987 0.498219 0.502877
4 2 0.495829 0.50112 0.502317
7 2 0.503513 0.495359 0.502524
ITEM: TIMESTEP
50000
ITEM: NUMBER OF ATOMS
14
ITEM: BOX BOUNDS pp pp pp
-200 200
-200 200
-200 200
ITEM: ATOMS id type xs ys zs
10 2 0.510138 0.504185 0.497237
11 2 0.511267 0.501001 0.497948
1 2 0.498217 0.492036 0.504989
12 2 0.510863 0.49828 0.499186
13 2 0.510018 0.495224 0.500817
14 2 0.509389 0.49283 0.502843
5 2 0.501356 0.503455 0.499954
9 2 0.508508 0.506792 0.496867
8 2 0.506227 0.509526 0.49678
6 2 0.50216 0.506207 0.498796
7 2 0.503317 0.509108 0.497121
2 2 0.498378 0.49503 0.503504
3 2 0.49841 0.498261 0.502325
4 2 0.499421 0.501059 0.501632
ITEM: TIMESTEP
51000
ITEM: NUMBER OF ATOMS
14
ITEM: BOX BOUNDS pp pp pp
-200 200
-200 200
-200 200
ITEM: ATOMS id type xs ys zs