LAMMPS (7 Feb 2024 - Update 1)
OMP_NUM_THREADS environment is not set. Defaulting to 1 thread. (src/comm.cpp:98)
  using 1 OpenMP thread(s) per MPI task
#============Initialization=================
units 			metal
atom_style 		atomic
boundary 		p p p

############################################
#              CLI Variables               #
############################################
variable 		seed index 200093          #
variable 		N index 21                 #
variable 		iter index 10000000        #
variable 		iterther index 1000000     #
variable 		iexport index 100000       #
variable 		tempchauf index 4000       #
variable 		Tdamp index 0.001          #
variable 		timestep index 0.0001      #
variable 		box_size index 40		   #
############################################
############################################
#=========Simulation box definition=========
lattice 		sc 1.0
Lattice spacing in x,y,z = 1 1 1
region 			bigbox block 0 ${box_size} 0 ${box_size} 0 ${box_size}
region 			bigbox block 0 40 0 ${box_size} 0 ${box_size}
region 			bigbox block 0 40 0 40 0 ${box_size}
region 			bigbox block 0 40 0 40 0 40
create_box 		1 bigbox
Created orthogonal box = (0 0 0) to (40 40 40)
  1 by 1 by 1 MPI processor grid

#==================Atoms====================
region 			safezone block 5 10 5 10 5 10 units box
create_atoms 	1 random ${N} ${seed} safezone
create_atoms 	1 random 21 ${seed} safezone
create_atoms 	1 random 21 200093 safezone
Created 21 atoms
  using lattice units in orthogonal box = (0 0 0) to (40 40 40)
  create_atoms CPU = 0.001 seconds
labelmap 		atom 1 C
mass 			* 12.01



#==========Velocity initialization==========
velocity 		all create 0.0000001 1563967 rot yes dist gaussian

#======Pair style for atom interactions=============
pair_style 		airebo 1.8 1 1
pair_coeff 		* * CH.airebo C
Reading airebo potential file CH.airebo with DATE: 2011-10-25

#==============Neighbor selection===================
neighbor 		0.3 bin
neigh_modify 	every 1 delay 0 check yes



#==============Custom Wall force====================
#==========Wall with harmonic potential=============
#variable       k equal 10.0

#fix             xlo_wall all wall/harmonic xlo EDGE v_k 1.0 0.7
#fix             xhi_wall all wall/harmonic xhi EDGE v_k 1.0 0.7
#fix             ylo_wall all wall/harmonic ylo EDGE v_k 1.0 0.7
#fix             yhi_wall all wall/harmonic yhi EDGE v_k 1.0 0.7
#fix             zlo_wall all wall/harmonic zlo EDGE v_k 1.0 0.7
#fix             zhi_wall all wall/harmonic zhi EDGE v_k 1.0 0.7



#=====================Timestep======================
timestep 		${timestep}
timestep 		0.0001

#===============Define dump command=================
dump 			1 all cfg 100000 ./dump/dump.tensile_*.cfg mass type xs ys zs vx vy vz id

#========System temperature printing info===========
thermo_style 	custom step temp etotal epair pe ke
thermo 			${iexport}	# 1'000'000
thermo 			100000	



#====================CRC Cycle======================

#=============Condensation et chauffe===============

# Minimize during the heating phase
#min_style       sd
#minimize        1.0e-5 1.0e-7 500 1000

fix 			1 all nve
fix 			2 all temp/berendsen 0.0 ${tempchauf} ${Tdamp}
fix 			2 all temp/berendsen 0.0 4000 ${Tdamp}
fix 			2 all temp/berendsen 0.0 4000 0.001
fix             3 all momentum 1 linear 1 1 1 angular rescale

run 			${iter}
run 			10000000
Neighbor list info ...
  update: every = 1 steps, delay = 0 steps, check = yes
  max neighbors/atom: 2000, page size: 100000
  master list distance cutoff = 8.116371
  ghost atom cutoff = 8.116371
  binsize = 4.0581855, bins = 10 10 10
  1 neighbor lists, perpetual/occasional/extra = 1 0 0
  (1) pair airebo, perpetual
      attributes: full, newton on, ghost
      pair build: full/bin/ghost
      stencil: full/ghost/bin/3d
      bin: standard
Per MPI rank memory allocation (min/avg/max) = 3.889 | 3.889 | 3.889 Mbytes
   Step          Temp          TotEng         E_pair         PotEng         KinEng    
         0   1e-07          4951.174       4951.174       4951.174       2.5852029e-10
    100000   40.642543     -107.62764     -107.73271     -107.73271      0.10506922   
    200000   80.137947     -107.54465     -107.75182     -107.75182      0.20717285   
    300000   120.00332     -107.46134     -107.77157     -107.77157      0.31023292   
    400000   159.84963     -107.36492     -107.77817     -107.77817      0.41324373   
    500000   199.65344     -107.27932     -107.79547     -107.79547      0.51614465   
    600000   246.85026     -111.77169     -112.40985     -112.40985      0.638158     
    700000   282.84209     -115.22972     -115.96093     -115.96093      0.73120419   
    800000   316.36577     -114.54238     -115.36025     -115.36025      0.8178697    
    900000   371.31466     -114.349       -115.30893     -115.30893      0.95992375   
   1000000   389.88751     -114.47054     -115.47848     -115.47848      1.0079383    
   1100000   446.39795     -114.83081     -115.98484     -115.98484      1.1540293    
   1200000   483.91613     -114.88467     -116.13569     -116.13569      1.2510214    
   1300000   522.75905     -114.43716     -115.7886      -115.7886       1.3514382    
   1400000   562.38414     -114.78026     -116.23414     -116.23414      1.4538771    
   1500000   605.28625     -114.51499     -116.07977     -116.07977      1.5647878    
   1600000   647.82559     -113.7945      -115.46926     -115.46926      1.6747606    
   1700000   673.70256     -113.70622     -115.44788     -115.44788      1.7416578    
   1800000   724.1437      -114.19195     -116.06401     -116.06401      1.8720584    
   1900000   763.21072     -114.06488     -116.03794     -116.03794      1.9730546    
   2000000   807.36964     -112.25494     -114.34215     -114.34215      2.0872143    
   2100000   842.6035      -116.04056     -118.21886     -118.21886      2.178301     
   2200000   878.55968     -116.56691     -118.83817     -118.83817      2.271255     
   2300000   926.56997     -115.81991     -118.21528     -118.21528      2.3953714    
   2400000   975.90499     -115.51708     -118.03999     -118.03999      2.5229124    
   2500000   1016.7453     -115.74166     -118.37015     -118.37015      2.6284929    
   2600000   1066.1552     -115.17069     -117.92692     -117.92692      2.7562274    
   2700000   1045.8365     -117.54853     -120.25223     -120.25223      2.7036997    
   2800000   1164.428      -116.65239     -119.66267     -119.66267      3.0102826    
   2900000   1159.2966     -115.81872     -118.81574     -118.81574      2.997017     
   3000000   1187.8221     -117.30895     -120.37971     -120.37971      3.0707613    
   3100000   1201.2151     -118.54405     -121.64943     -121.64943      3.1053847    
   3200000   1289.8237     -116.97307     -120.30753     -120.30753      3.334456     
   3300000   1309.0229     -118.36844     -121.75253     -121.75253      3.3840899    
   3400000   1411.4635     -117.84221     -121.49113     -121.49113      3.6489196    
   3500000   1380.5105     -118.08829     -121.65719     -121.65719      3.5688998    
   3600000   1425.1726     -118.21049     -121.89485     -121.89485      3.6843603    
   3700000   1470.5871     -117.16676     -120.96852     -120.96852      3.801766     
   3800000   1543.754      -117.87873     -121.86965     -121.86965      3.9909173    
   3900000   1534.9468     -117.02044     -120.98859     -120.98859      3.9681488    
   4000000   1619.3835     -117.44654     -121.63298     -121.63298      4.1864349    
   4100000   1643.0567     -117.08177     -121.3294      -121.3294       4.2476351    
   4200000   1730.9181     -116.82898     -121.30375     -121.30375      4.4747744    
   4300000   1738.6086     -116.64314     -121.1378      -121.1378       4.4946559    
   4400000   1880.7616     -115.49463     -120.35678     -120.35678      4.8621504    
   4500000   1794.3398     -116.25833     -120.89707     -120.89707      4.6387325    
   4600000   1838.2147     -116.48725     -121.2394      -121.2394       4.7521579    
   4700000   1892.3031     -117.07722     -121.9692      -121.9692       4.8919873    
   4800000   1901.4276     -115.71135     -120.62693     -120.62693      4.9155762    
   4900000   2008.5753     -114.55188     -119.74446     -119.74446      5.1925746    
   5000000   1924.8928     -114.27012     -119.24636     -119.24636      4.9762385    
   5100000   1932.5715     -113.47419     -118.47028     -118.47028      4.9960894    
   5200000   2044.5006     -115.49122     -120.77667     -120.77667      5.285449     
   5300000   2017.2851     -113.53423     -118.74932     -118.74932      5.2150912    
   5400000   2166.7875     -111.51317     -117.11475     -117.11475      5.6015853    
   5500000   2178.1091     -115.77815     -121.409       -121.409        5.630854     
   5600000   2248.988      -113.71203     -119.52612     -119.52612      5.8140903    
   5700000   2309.5474     -115.18796     -121.1586      -121.1586       5.9706485    
   5800000   2214.2787     -111.24168     -116.96604     -116.96604      5.7243598    
   5900000   2393.3093     -113.23277     -119.41996     -119.41996      6.1871901    
   6000000   2447.0912     -112.19988     -118.52611     -118.52611      6.3262271    
   6100000   2575.8941     -109.83185     -116.49105     -116.49105      6.659209     
   6200000   2437.843      -112.7751      -119.07742     -119.07742      6.3023188    
   6300000   2285.9023     -111.32516     -117.23468     -117.23468      5.9095213    
   6400000   2642.8142     -111.82563     -118.65784     -118.65784      6.8322108    
   6500000   2427.4592     -111.57796     -117.85343     -117.85343      6.2754746    
   6600000   2605.8744     -112.39519     -119.1319      -119.1319       6.736714     
   6700000   2641.8287     -111.51886     -118.34852     -118.34852      6.8296631    
   6800000   2789.2048     -112.18122     -119.39188     -119.39188      7.2106604    
   6900000   2912.9392     -112.08266     -119.61319     -119.61319      7.5305388    
   7000000   2768.6667     -108.06932     -115.22689     -115.22689      7.1575653    
   7100000   2696.4321     -111.3038      -118.27462     -118.27462      6.9708241    
   7200000   2809.7213     -111.45252     -118.71622     -118.71622      7.2636996    
   7300000   2971.8666     -112.84756     -120.53044     -120.53044      7.6828781    
   7400000   3012.4324     -112.10533     -119.89308     -119.89308      7.7877489    
   7500000   2967.7186     -108.16515     -115.83731     -115.83731      7.6721546    
   7600000   3009.3421     -112.05229     -119.83205     -119.83205      7.7797599    
   7700000   2872.8607     -109.49278     -116.91971     -116.91971      7.4269278    
   7800000   3101.1481     -107.63367     -115.65076     -115.65076      8.0170971    
   7900000   3190.4326     -109.69375     -117.94166     -117.94166      8.2479156    
   8000000   3169.8322     -108.99988     -117.19454     -117.19454      8.1946594    
   8100000   3278.0525     -105.88988     -114.36431     -114.36431      8.4744309    
   8200000   3243.8627     -103.35603     -111.74208     -111.74208      8.3860433    
   8300000   3219.957      -106.39139     -114.71563     -114.71563      8.3242421    
   8400000   3487.3163     -104.07858     -113.094       -113.094        9.0154203    
   8500000   3449.4995     -107.63005     -116.54771     -116.54771      8.917656     
   8600000   3587.8276     -107.04324     -116.3185      -116.3185       9.2752624    
   8700000   3502.6632     -105.20915     -114.26424     -114.26424      9.0550952    
   8800000   3506.7268     -106.56264     -115.62824     -115.62824      9.0656002    
   8900000   3649.3592     -106.79468     -116.22902     -116.22902      9.434334     
   9000000   3627.382      -106.70584     -116.08336     -116.08336      9.3775184    
   9100000   3650.2148     -107.43263     -116.86918     -116.86918      9.4365459    
   9200000   3675.3909     -107.35824     -116.85987     -116.85987      9.5016313    
   9300000   3664.9916     -108.23528     -117.71002     -117.71002      9.474747     
   9400000   3751.3586     -108.34757     -118.04559     -118.04559      9.6980232    
   9500000   3926.6974     -101.83078     -111.98209     -111.98209      10.151309    
   9600000   3927.8468     -99.581313     -109.73559     -109.73559      10.154281    
   9700000   4034.7829     -102.85126     -113.28199     -113.28199      10.430732    
   9800000   4018.7416     -105.72021     -116.10947     -116.10947      10.389262    
   9900000   3978.5503     -101.08318     -111.36854     -111.36854      10.28536     
  10000000   4121.0391     -104.06044     -114.71416     -114.71416      10.653722    
Loop time of 1626.02 on 1 procs for 10000000 steps with 21 atoms

Performance: 53.136 ns/day, 0.452 hours/ns, 6149.989 timesteps/s, 129.150 katom-step/s
99.8% CPU use with 1 MPI tasks x 1 OpenMP threads

MPI task timing breakdown:
Section |  min time  |  avg time  |  max time  |%varavg| %total
---------------------------------------------------------------
Pair    | 1500.3     | 1500.3     | 1500.3     |   0.0 | 92.27
Neigh   | 24.757     | 24.757     | 24.757     |   0.0 |  1.52
Comm    | 17.454     | 17.454     | 17.454     |   0.0 |  1.07
Output  | 1.026      | 1.026      | 1.026      |   0.0 |  0.06
Modify  | 64.195     | 64.195     | 64.195     |   0.0 |  3.95
Other   |            | 18.32      |            |       |  1.13

Nlocal:             21 ave          21 max          21 min
Histogram: 1 0 0 0 0 0 0 0 0 0
Nghost:             59 ave          59 max          59 min
Histogram: 1 0 0 0 0 0 0 0 0 0
Neighs:              0 ave           0 max           0 min
Histogram: 1 0 0 0 0 0 0 0 0 0
FullNghs:          290 ave         290 max         290 min
Histogram: 1 0 0 0 0 0 0 0 0 0

Total # of neighbors = 290
Ave neighs/atom = 13.809524
Neighbor list builds = 221001
Dangerous builds = 0
write_restart 	./endconf/endconf*1.restart
System init for write_restart ...

#==============Constant Temp Phase==================

# Minimize during the constant temperature phase
min_style       sd
minimize        1.0e-5 1.0e-7 500 1000
Per MPI rank memory allocation (min/avg/max) = 6.265 | 6.265 | 6.265 Mbytes
   Step          Temp          TotEng         E_pair         PotEng         KinEng    
  10000000   4121.0391     -104.06044     -114.71416     -114.71416      10.653722    
  10000050   4121.0391     -111.45435     -122.10807     -122.10807      10.653722    
Loop time of 0.0489188 on 1 procs for 50 steps with 21 atoms

71.6% CPU use with 1 MPI tasks x 1 OpenMP threads

Minimization stats:
  Stopping criterion = energy tolerance
  Energy initial, next-to-last, final = 
     -114.714161672121  -122.108003204047  -122.108070293742
  Force two-norm initial, final = 28.303476 2.8821824
  Force max component initial, final = 10.29087 1.5197327
  Final line search alpha, max atom move = 0.20643315 0.31372321
  Iterations, force evaluations = 50 138

MPI task timing breakdown:
Section |  min time  |  avg time  |  max time  |%varavg| %total
---------------------------------------------------------------
Pair    | 0.025603   | 0.025603   | 0.025603   |   0.0 | 52.34
Neigh   | 0.0056737  | 0.0056737  | 0.0056737  |   0.0 | 11.60
Comm    | 0.0003506  | 0.0003506  | 0.0003506  |   0.0 |  0.72
Output  | 0          | 0          | 0          |   0.0 |  0.00
Modify  | 0          | 0          | 0          |   0.0 |  0.00
Other   |            | 0.01729    |            |       | 35.35

Nlocal:             21 ave          21 max          21 min
Histogram: 1 0 0 0 0 0 0 0 0 0
Nghost:             57 ave          57 max          57 min
Histogram: 1 0 0 0 0 0 0 0 0 0
Neighs:              0 ave           0 max           0 min
Histogram: 1 0 0 0 0 0 0 0 0 0
FullNghs:          288 ave         288 max         288 min
Histogram: 1 0 0 0 0 0 0 0 0 0

Total # of neighbors = 288
Ave neighs/atom = 13.714286
Neighbor list builds = 41
Dangerous builds = 1

unfix 			2
fix 			4 all temp/berendsen ${tempchauf} ${tempchauf} ${Tdamp}
fix 			4 all temp/berendsen 4000 ${tempchauf} ${Tdamp}
fix 			4 all temp/berendsen 4000 4000 ${Tdamp}
fix 			4 all temp/berendsen 4000 4000 0.001

run 			${iterther}
run 			1000000
Per MPI rank memory allocation (min/avg/max) = 5.14 | 5.14 | 5.14 Mbytes
   Step          Temp          TotEng         E_pair         PotEng         KinEng    
  10000050   4121.0391     -111.45435     -122.10807     -122.10807      10.653722    
  10100000   4009.3991     -106.91775     -117.28286     -117.28286      10.36511     
  10200000   3899.9203     -103.43131     -113.5134      -113.5134       10.082085    
  10300000   3896.6882     -102.6319      -112.70563     -112.70563      10.07373     
  10400000   3918.146      -99.462107     -109.59131     -109.59131      10.129202    
  10500000   4110.4204     -102.46594     -113.09221     -113.09221      10.626271    
  10600000   3904.3795     -102.82218     -112.91579     -112.91579      10.093613    
  10700000   3897.4931     -100.35692     -110.43274     -110.43274      10.075811    
  10800000   4068.4939     -101.62623     -112.14411     -112.14411      10.517882    
  10900000   4017.9026     -104.47118     -114.85827     -114.85827      10.387094    
  11000000   4058.8926     -107.38815     -117.88121     -117.88121      10.493061    
  11000050   3898.3634     -107.1924      -117.27046     -117.27046      10.07806     
Loop time of 150.616 on 1 procs for 1000000 steps with 21 atoms

Performance: 57.365 ns/day, 0.418 hours/ns, 6639.413 timesteps/s, 139.428 katom-step/s
99.7% CPU use with 1 MPI tasks x 1 OpenMP threads

MPI task timing breakdown:
Section |  min time  |  avg time  |  max time  |%varavg| %total
---------------------------------------------------------------
Pair    | 136.51     | 136.51     | 136.51     |   0.0 | 90.63
Neigh   | 3.5884     | 3.5884     | 3.5884     |   0.0 |  2.38
Comm    | 1.7893     | 1.7893     | 1.7893     |   0.0 |  1.19
Output  | 0.10249    | 0.10249    | 0.10249    |   0.0 |  0.07
Modify  | 6.6218     | 6.6218     | 6.6218     |   0.0 |  4.40
Other   |            | 2.009      |            |       |  1.33

Nlocal:             21 ave          21 max          21 min
Histogram: 1 0 0 0 0 0 0 0 0 0
Nghost:             61 ave          61 max          61 min
Histogram: 1 0 0 0 0 0 0 0 0 0
Neighs:              0 ave           0 max           0 min
Histogram: 1 0 0 0 0 0 0 0 0 0
FullNghs:          420 ave         420 max         420 min
Histogram: 1 0 0 0 0 0 0 0 0 0

Total # of neighbors = 420
Ave neighs/atom = 20
Neighbor list builds = 32146
Dangerous builds = 0
write_restart 	./endconf/endconf*2.restart
System init for write_restart ...

#=================Cooling Phase=====================

# Re-minimize before cooling
#min_style       sd
#minimize        1.0e-5 1.0e-7 500 1000

unfix 			4
fix 			5 all temp/berendsen ${tempchauf} 0.0 ${Tdamp}
fix 			5 all temp/berendsen 4000 0.0 ${Tdamp}
fix 			5 all temp/berendsen 4000 0.0 0.001

run 			${iter}
run 			10000000
Per MPI rank memory allocation (min/avg/max) = 5.14 | 5.14 | 5.14 Mbytes
   Step          Temp          TotEng         E_pair         PotEng         KinEng    
  11000050   3898.3634     -107.1924      -117.27046     -117.27046      10.07806     
  11100000   4125.468      -102.40003     -113.06521     -113.06521      10.665172    
  11200000   3802.5937     -104.07028     -113.90076     -113.90076      9.8304762    
  11300000   3936.8373     -104.84987     -115.02739     -115.02739      10.177523    
  11400000   3642.5239     -107.81407     -117.23073     -117.23073      9.4166633    
  11500000   3690.6889     -105.24825     -114.78942     -114.78942      9.5411795    
  11600000   3691.788      -105.95745     -115.50147     -115.50147      9.5440209    
  11700000   3623.7779     -102.63394     -112.00214     -112.00214      9.3682012    
  11800000   3735.7311     -101.64856     -111.30618     -111.30618      9.6576229    
  11900000   3811.7413     -103.52223     -113.37636     -113.37636      9.8541247    
  12000000   3661.1232     -103.8676      -113.33235     -113.33235      9.4647464    
  12100000   3499.4694     -105.67913     -114.72597     -114.72597      9.0468385    
  12200000   3503.96       -107.38397     -116.44242     -116.44242      9.0584477    
  12300000   3594.9969     -107.3821      -116.67589     -116.67589      9.2937963    
  12400000   3387.3682     -104.88572     -113.64275     -113.64275      8.7570342    
  12500000   3300.9531     -107.96544     -116.49908     -116.49908      8.5336335    
  12600000   3303.1181     -104.49195     -113.03118     -113.03118      8.5392305    
  12700000   3267.7856     -108.1875      -116.63539     -116.63539      8.4478887    
  12800000   3208.7215     -104.1858      -112.481       -112.481        8.2951961    
  12900000   3328.3777     -109.13431     -117.73885     -117.73885      8.6045317    
  13000000   3267.5573     -108.08011     -116.52741     -116.52741      8.4472987    
  13100000   3161.8676     -105.83424     -114.00831     -114.00831      8.1740693    
  13200000   3092.0023     -110.56448     -118.55793     -118.55793      7.9934532    
  13300000   3156.6794     -107.99322     -116.15387     -116.15387      8.1606567    
  13400000   3121.7156     -108.60185     -116.67212     -116.67212      8.0702681    
  13500000   3030.8038     -109.84817     -117.68341     -117.68341      7.8352427    
  13600000   3069.5444     -109.41539     -117.35078     -117.35078      7.9353951    
  13700000   2999.8333     -108.56667     -116.32184     -116.32184      7.7551777    
  13800000   2808.6957     -110.85258     -118.11363     -118.11363      7.2610484    
  13900000   2910.4344     -106.17765     -113.70171     -113.70171      7.5240636    
  14000000   2817.4242     -111.03429     -118.3179      -118.3179       7.2836132    
  14100000   2755.0235     -111.77711     -118.8994      -118.8994       7.1222947    
  14200000   2785.0734     -110.97674     -118.17672     -118.17672      7.1999799    
  14300000   2650.1764     -113.44803     -120.29927     -120.29927      6.8512438    
  14400000   2599.6355     -108.99932     -115.71991     -115.71991      6.7205851    
  14500000   2590.224      -112.46119     -119.15744     -119.15744      6.6962545    
  14600000   2466.0552     -111.45073     -117.82598     -117.82598      6.3752531    
  14700000   2488.8614     -109.73211     -116.16632     -116.16632      6.4342117    
  14800000   2462.5338     -111.33511     -117.70126     -117.70126      6.3661495    
  14900000   2325.7731     -111.23548     -117.24807     -117.24807      6.0125953    
  15000000   2337.2804     -112.06666     -118.109       -118.109        6.0423441    
  15100000   2485.1977     -113.92613     -120.35087     -120.35087      6.4247403    
  15200000   2344.1974     -113.20648     -119.26671     -119.26671      6.0602259    
  15300000   2300.1273     -112.64888     -118.59518     -118.59518      5.9462958    
  15400000   2400.5313     -115.15755     -121.36341     -121.36341      6.2058604    
  15500000   2210.6227     -114.23796     -119.95287     -119.95287      5.7149082    
  15600000   2150.7561     -116.24856     -121.8087      -121.8087       5.5601408    
  15700000   2143.473      -114.12323     -119.66455     -119.66455      5.5413127    
  15800000   2148.7176     -113.92156     -119.47643     -119.47643      5.5548711    
  15900000   2083.9438     -114.82375     -120.21117     -120.21117      5.3874175    
  16000000   1987.7984     -115.92648     -121.06534     -121.06534      5.1388622    
  16100000   2041.2378     -116.30675     -121.58376     -121.58376      5.277014     
  16200000   1858.5743     -115.01639     -119.82118     -119.82118      4.8047917    
  16300000   1929.6709     -115.90837     -120.89696     -120.89696      4.9885907    
  16400000   1846.3764     -116.74032     -121.51358     -121.51358      4.7732577    
  16500000   1771.5969     -117.67906     -122.259       -122.259        4.5799374    
  16600000   1749.9072     -115.59107     -120.11494     -120.11494      4.5238653    
  16700000   1664.6031     -114.79252     -119.09586     -119.09586      4.3033368    
  16800000   1727.6358     -118.95826     -123.42455     -123.42455      4.466289     
  16900000   1648.0428     -117.51845     -121.77897     -121.77897      4.2605251    
  17000000   1772.3344     -117.25177     -121.83361     -121.83361      4.581844     
  17100000   1545.269      -118.77303     -122.76787     -122.76787      3.9948339    
  17200000   1560.1519     -117.78496     -121.81827     -121.81827      4.0333093    
  17300000   1484.0379     -117.75307     -121.58961     -121.58961      3.8365391    
  17400000   1457.967      -118.76249     -122.53163     -122.53163      3.7691406    
  17500000   1352.4992     -119.29571     -122.7922      -122.7922       3.4964849    
  17600000   1437.3736     -119.17559     -122.89149     -122.89149      3.7159025    
  17700000   1363.6915     -118.85433     -122.37975     -122.37975      3.5254193    
  17800000   1336.6617     -119.81655     -123.27209     -123.27209      3.4555418    
  17900000   1208.9839     -119.61659     -122.74206     -122.74206      3.1254688    
  18000000   1168.9279     -119.41865     -122.44057     -122.44057      3.0219157    
  18100000   1190.1549     -119.15196     -122.22875     -122.22875      3.0767919    
  18200000   1115.4467     -120.19069     -123.07435     -123.07435      2.883656     
  18300000   1044.8765     -120.05679     -122.75801     -122.75801      2.7012178    
  18400000   1089.0785     -120.98861     -123.8041      -123.8041       2.815489     
  18500000   988.39408     -120.34934     -122.90454     -122.90454      2.5551992    
  18600000   945.512       -119.28181     -121.72615     -121.72615      2.4443404    
  18700000   912.03264     -120.6829      -123.04069     -123.04069      2.3577894    
  18800000   879.77113     -121.29891     -123.5733      -123.5733       2.2743869    
  18900000   802.46277     -120.18513     -122.25966     -122.25966      2.0745291    
  19000000   825.89614     -121.6747      -123.80981     -123.80981      2.1351091    
  19100000   766.58679     -121.29597     -123.27775     -123.27775      1.9817824    
  19200000   707.94855     -120.35178     -122.18197     -122.18197      1.8301906    
  19300000   682.90504     -122.359       -124.12445     -124.12445      1.7654481    
  19400000   646.91022     -122.78984     -124.46223     -124.46223      1.6723942    
  19500000   582.5466      -123.03003     -124.53603     -124.53603      1.5060012    
  19600000   583.99499     -122.78224     -124.29199     -124.29199      1.5097455    
  19700000   496.99156     -122.82288     -124.10771     -124.10771      1.284824     
  19800000   467.12882     -122.94247     -124.15009     -124.15009      1.2076228    
  19900000   447.40772     -123.26256     -124.4192      -124.4192       1.1566397    
  20000000   393.2354      -123.56455     -124.58114     -124.58114      1.0165933    
  20100000   352.22776     -123.90213     -124.81271     -124.81271      0.91058022   
  20200000   317.05356     -123.80345     -124.6231      -124.6231       0.81964778   
  20300000   297.27873     -124.25087     -125.0194      -125.0194       0.76852583   
  20400000   236.51393     -124.33453     -124.94596     -124.94596      0.61143651   
  20500000   201.34777     -124.50724     -125.02777     -125.02777      0.52052485   
  20600000   159.30561     -124.69793     -125.10977     -125.10977      0.41183733   
  20700000   122.70578     -125.00135     -125.31857     -125.31857      0.31721933   
  20800000   79.309495     -125.28672     -125.49175     -125.49175      0.20503114   
  20900000   39.284044     -125.32297     -125.42453     -125.42453      0.10155722   
  21000000   0.025989343   -125.59396     -125.59402     -125.59402      6.7187725e-05
  21000050   0.0049310299  -125.59404     -125.59405     -125.59405      1.2747713e-05
Loop time of 1313.45 on 1 procs for 10000000 steps with 21 atoms

Performance: 65.781 ns/day, 0.365 hours/ns, 7613.533 timesteps/s, 159.884 katom-step/s
99.8% CPU use with 1 MPI tasks x 1 OpenMP threads

MPI task timing breakdown:
Section |  min time  |  avg time  |  max time  |%varavg| %total
---------------------------------------------------------------
Pair    | 1221       | 1221       | 1221       |   0.0 | 92.96
Neigh   | 20.152     | 20.152     | 20.152     |   0.0 |  1.53
Comm    | 12.167     | 12.167     | 12.167     |   0.0 |  0.93
Output  | 0.79102    | 0.79102    | 0.79102    |   0.0 |  0.06
Modify  | 47.108     | 47.108     | 47.108     |   0.0 |  3.59
Other   |            | 12.24      |            |       |  0.93

Nlocal:             21 ave          21 max          21 min
Histogram: 1 0 0 0 0 0 0 0 0 0
Nghost:             55 ave          55 max          55 min
Histogram: 1 0 0 0 0 0 0 0 0 0
Neighs:              0 ave           0 max           0 min
Histogram: 1 0 0 0 0 0 0 0 0 0
FullNghs:          420 ave         420 max         420 min
Histogram: 1 0 0 0 0 0 0 0 0 0

Total # of neighbors = 420
Ave neighs/atom = 20
Neighbor list builds = 211926
Dangerous builds = 0
write_restart 	./endconf/endconf*3.restart
System init for write_restart ...

Total wall time: 0:51:30
