ITEM: TIMESTEP
0
ITEM: NUMBER OF ATOMS
7
ITEM: BOX BOUNDS pp pp pp
0.0000000000000000e+00 2.0000000000000000e+01
0.0000000000000000e+00 2.0000000000000000e+01
0.0000000000000000e+00 2.0000000000000000e+01
ITEM: ATOMS id type xs ys zs
1 1 0.315187 0.248471 0.151372
2 1 0.213388 0.316506 0.224202
3 1 0.259793 0.238673 0.278717
4 1 0.292128 0.300347 0.236884
5 1 0.207514 0.195818 0.211236
7 1 0.221076 0.323478 0.197918
6 1 0.337275 0.28713 0.290696
ITEM: TIMESTEP
1000
ITEM: NUMBER OF ATOMS
7
ITEM: BOX BOUNDS pp pp pp
0.0000000000000000e+00 2.0000000000000000e+01
0.0000000000000000e+00 2.0000000000000000e+01
0.0000000000000000e+00 2.0000000000000000e+01
ITEM: ATOMS id type xs ys zs
1 1 0.317207 0.243824 0.147065
2 1 0.190861 0.311732 0.265993
3 1 0.259885 0.226229 0.290032
4 1 0.294786 0.312872 0.226207
5 1 0.20364 0.192738 0.204806
7 1 0.226694 0.336947 0.151228
6 1 0.353289 0.286083 0.305692
ITEM: TIMESTEP
2000
ITEM: NUMBER OF ATOMS
7
ITEM: BOX BOUNDS pp pp pp
0.0000000000000000e+00 2.0000000000000000e+01
0.0000000000000000e+00 2.0000000000000000e+01
0.0000000000000000e+00 2.0000000000000000e+01
ITEM: ATOMS id type xs ys zs
1 1 0.317741 0.241226 0.145336
7 1 0.223482 0.337773 0.146843
2 1 0.187167 0.312962 0.267443
3 1 0.260644 0.222771 0.293804
4 1 0.297066 0.317371 0.225965
5 1 0.20214 0.192568 0.201653
6 1 0.358122 0.285754 0.309979
ITEM: TIMESTEP
3000
ITEM: NUMBER OF ATOMS
7
ITEM: BOX BOUNDS pp pp pp
0.0000000000000000e+00 2.0000000000000000e+01
0.0000000000000000e+00 2.0000000000000000e+01
0.0000000000000000e+00 2.0000000000000000e+01
ITEM: ATOMS id type xs ys zs
1 1 0.317647 0.239603 0.144609
7 1 0.221489 0.337758 0.143917
2 1 0.18492 0.313523 0.268366
3 1 0.261166 0.220428 0.296097
4 1 0.298517 0.320565 0.225832
5 1 0.201478 0.19315 0.199554
6 1 0.361145 0.285397 0.312649
ITEM: TIMESTEP
4000
ITEM: NUMBER OF ATOMS
7
ITEM: BOX BOUNDS pp pp pp
0.0000000000000000e+00 2.0000000000000000e+01
0.0000000000000000e+00 2.0000000000000000e+01
0.0000000000000000e+00 2.0000000000000000e+01
ITEM: ATOMS id type xs ys zs
1 1 0.317271 0.238325 0.144395
7 1 0.219795 0.337284 0.142216
2 1 0.18319 0.314018 0.268443
3 1 0.26175 0.21844 0.297743
4 1 0.299745 0.323088 0.225789
5 1 0.201235 0.194201 0.197892
6 1 0.363375 0.285069 0.314547
ITEM: TIMESTEP
5000
ITEM: NUMBER OF ATOMS
7
ITEM: BOX BOUNDS pp pp pp
0.0000000000000000e+00 2.0000000000000000e+01
0.0000000000000000e+00 2.0000000000000000e+01
0.0000000000000000e+00 2.0000000000000000e+01
ITEM: ATOMS id type xs ys zs
1 1 0.316658 0.237182 0.144501
7 1 0.218301 0.336472 0.141092
2 1 0.181361 0.314507 0.268138
3 1 0.262675 0.217103 0.298636
4 1 0.300764 0.324713 0.226152
5 1 0.201226 0.19567 0.196388
6 1 0.365378 0.284778 0.316117
ITEM: TIMESTEP
6000
ITEM: NUMBER OF ATOMS
7
ITEM: BOX BOUNDS pp pp pp
0.0000000000000000e+00 2.0000000000000000e+01
0.0000000000000000e+00 2.0000000000000000e+01
0.0000000000000000e+00 2.0000000000000000e+01
ITEM: ATOMS id type xs ys zs
1 1 0.316205 0.236202 0.144675
7 1 0.216935 0.335303 0.140346
2 1 0.179728 0.314322 0.267775
3 1 0.263196 0.216412 0.299091
4 1 0.301904 0.326183 0.226553
5 1 0.200958 0.197459 0.195044
6 1 0.367437 0.284543 0.317539
ITEM: TIMESTEP
7000
ITEM: NUMBER OF ATOMS
7
ITEM: BOX BOUNDS pp pp pp
0.0000000000000000e+00 2.0000000000000000e+01
0.0000000000000000e+00 2.0000000000000000e+01
0.0000000000000000e+00 2.0000000000000000e+01
ITEM: ATOMS id type xs ys zs
1 1 0.316157 0.235428 0.144788
7 1 0.215629 0.333728 0.139875
2 1 0.178678 0.313583 0.267216
3 1 0.263358 0.216244 0.299215
4 1 0.302785 0.327529 0.227245
5 1 0.200114 0.199509 0.193841
6 1 0.369641 0.284402 0.318844
ITEM: TIMESTEP
8000
ITEM: NUMBER OF ATOMS
7
ITEM: BOX BOUNDS pp pp pp
0.0000000000000000e+00 2.0000000000000000e+01
0.0000000000000000e+00 2.0000000000000000e+01
0.0000000000000000e+00 2.0000000000000000e+01
ITEM: ATOMS id type xs ys zs
1 1 0.316236 0.234715 0.144894
7 1 0.214351 0.331967 0.139367
2 1 0.178175 0.312726 0.266419
3 1 0.263552 0.216266 0.299181
4 1 0.303195 0.328714 0.228477
5 1 0.198951 0.201691 0.192669
6 1 0.371902 0.284344 0.320017
ITEM: TIMESTEP
9000
ITEM: NUMBER OF ATOMS
7
ITEM: BOX BOUNDS pp pp pp
0.0000000000000000e+00 2.0000000000000000e+01
0.0000000000000000e+00 2.0000000000000000e+01
0.0000000000000000e+00 2.0000000000000000e+01
ITEM: ATOMS id type xs ys zs
1 1 0.316243 0.233953 0.144998
7 1 0.213027 0.330169 0.138509
2 1 0.177798 0.311951 0.265683
3 1 0.264292 0.216625 0.299171
4 1 0.303497 0.329871 0.230232
5 1 0.19763 0.203769 0.191334
6 1 0.373875 0.284086 0.321095
ITEM: TIMESTEP
10000
ITEM: NUMBER OF ATOMS
7
ITEM: BOX BOUNDS pp pp pp
0.0000000000000000e+00 2.0000000000000000e+01
0.0000000000000000e+00 2.0000000000000000e+01
0.0000000000000000e+00 2.0000000000000000e+01
ITEM: ATOMS id type xs ys zs
1 1 0.316117 0.233472 0.145461
7 1 0.211973 0.328051 0.137822
2 1 0.177432 0.311658 0.265353
3 1 0.265463 0.217417 0.299062
4 1 0.303384 0.330781 0.231706
5 1 0.196186 0.20545 0.189349
6 1 0.375808 0.283595 0.322272
ITEM: TIMESTEP
11000
ITEM: NUMBER OF ATOMS
7
ITEM: BOX BOUNDS pp pp pp
0.0000000000000000e+00 2.0000000000000000e+01
0.0000000000000000e+00 2.0000000000000000e+01
0.0000000000000000e+00 2.0000000000000000e+01
ITEM: ATOMS id type xs ys zs
1 1 0.315981 0.233382 0.146653
7 1 0.211626 0.326409 0.137309
2 1 0.176723 0.311611 0.265347
3 1 0.266636 0.218777 0.297456
4 1 0.302497 0.331475 0.232165
5 1 0.194807 0.20614 0.188197
6 1 0.378092 0.28263 0.323897
ITEM: TIMESTEP
12000
ITEM: NUMBER OF ATOMS
7
ITEM: BOX BOUNDS pp pp pp
0.0000000000000000e+00 2.0000000000000000e+01
0.0000000000000000e+00 2.0000000000000000e+01
0.0000000000000000e+00 2.0000000000000000e+01
ITEM: ATOMS id type xs ys zs
1 1 0.315448 0.23322 0.148299
7 1 0.211671 0.325674 0.136886
2 1 0.175757 0.31149 0.264833
3 1 0.268166 0.220358 0.295054
4 1 0.301878 0.332373 0.232855
5 1 0.193411 0.205777 0.18786
6 1 0.380031 0.281532 0.325236
ITEM: TIMESTEP
13000
ITEM: NUMBER OF ATOMS
7
ITEM: BOX BOUNDS pp pp pp
0.0000000000000000e+00 2.0000000000000000e+01
0.0000000000000000e+00 2.0000000000000000e+01
0.0000000000000000e+00 2.0000000000000000e+01
ITEM: ATOMS id type xs ys zs
1 1 0.314477 0.233399 0.150977
7 1 0.212738 0.324771 0.137099
2 1 0.175601 0.311191 0.264083
3 1 0.269091 0.220545 0.292731
4 1 0.302031 0.3343 0.233937
5 1 0.191551 0.204966 0.187462
6 1 0.380872 0.281252 0.324735
ITEM: TIMESTEP
14000
ITEM: NUMBER OF ATOMS
7
ITEM: BOX BOUNDS pp pp pp
0.0000000000000000e+00 2.0000000000000000e+01
0.0000000000000000e+00 2.0000000000000000e+01
0.0000000000000000e+00 2.0000000000000000e+01
ITEM: ATOMS id type xs ys zs
1 1 0.313596 0.233714 0.154087
7 1 0.214014 0.323723 0.137198
2 1 0.175777 0.310792 0.263677
3 1 0.269781 0.220614 0.290402
4 1 0.302074 0.336476 0.234924
5 1 0.189742 0.204208 0.187025
6 1 0.381378 0.280897 0.32371
ITEM: TIMESTEP
15000
ITEM: NUMBER OF ATOMS
7
ITEM: BOX BOUNDS pp pp pp
0.0000000000000000e+00 2.0000000000000000e+01
0.0000000000000000e+00 2.0000000000000000e+01
0.0000000000000000e+00 2.0000000000000000e+01
ITEM: ATOMS id type xs ys zs
1 1 0.312827 0.234084 0.157342
7 1 0.215402 0.322626 0.137326
2 1 0.175851 0.310387 0.263186
3 1 0.270305 0.220755 0.288226
5 1 0.187999 0.20343 0.186583
6 1 0.381992 0.280394 0.322297
4 1 0.301986 0.338748 0.236064
ITEM: TIMESTEP
16000
ITEM: NUMBER OF ATOMS
7
ITEM: BOX BOUNDS pp pp pp
0.0000000000000000e+00 2.0000000000000000e+01
0.0000000000000000e+00 2.0000000000000000e+01
0.0000000000000000e+00 2.0000000000000000e+01
ITEM: ATOMS id type xs ys zs
1 1 0.312758 0.233931 0.161304
7 1 0.216276 0.322023 0.137471
2 1 0.175683 0.310028 0.262719
3 1 0.270688 0.220917 0.286198
5 1 0.186641 0.202925 0.185959
6 1 0.382714 0.279719 0.320292
4 1 0.301602 0.340881 0.23708
ITEM: TIMESTEP
17000
ITEM: NUMBER OF ATOMS
7
ITEM: BOX BOUNDS pp pp pp
0.0000000000000000e+00 2.0000000000000000e+01
0.0000000000000000e+00 2.0000000000000000e+01
0.0000000000000000e+00 2.0000000000000000e+01
ITEM: ATOMS id type xs ys zs
1 1 0.313686 0.234473 0.163878
7 1 0.217328 0.321588 0.137467
2 1 0.174966 0.309767 0.262167
3 1 0.26946 0.221018 0.287198
5 1 0.186636 0.202659 0.185526
6 1 0.383623 0.278382 0.316663
4 1 0.300663 0.342536 0.238125
ITEM: TIMESTEP
18000
ITEM: NUMBER OF ATOMS
7
ITEM: BOX BOUNDS pp pp pp
0.0000000000000000e+00 2.0000000000000000e+01
0.0000000000000000e+00 2.0000000000000000e+01
0.0000000000000000e+00 2.0000000000000000e+01
ITEM: ATOMS id type xs ys zs
1 1 0.314805 0.235171 0.166338
7 1 0.21803 0.321363 0.137323
2 1 0.173932 0.309776 0.261447
3 1 0.268078 0.221276 0.288696
5 1 0.18754 0.202452 0.185423
6 1 0.384451 0.276506 0.312703
4 1 0.299527 0.34388 0.239094
ITEM: TIMESTEP
19000
ITEM: NUMBER OF ATOMS
7
ITEM: BOX BOUNDS pp pp pp
0.0000000000000000e+00 2.0000000000000000e+01
0.0000000000000000e+00 2.0000000000000000e+01
0.0000000000000000e+00 2.0000000000000000e+01
ITEM: ATOMS id type xs ys zs
1 1 0.315853 0.235924 0.168859
7 1 0.218932 0.321091 0.137257
2 1 0.172997 0.309725 0.260725
3 1 0.266668 0.221493 0.290223
5 1 0.188432 0.202191 0.185347
6 1 0.38504 0.274649 0.308484
4 1 0.29844 0.345351 0.240128
ITEM: TIMESTEP
20000
ITEM: NUMBER OF ATOMS
7
ITEM: BOX BOUNDS pp pp pp
0.0000000000000000e+00 2.0000000000000000e+01
0.0000000000000000e+00 2.0000000000000000e+01
0.0000000000000000e+00 2.0000000000000000e+01
ITEM: ATOMS id type xs ys zs
7 1 0.219932 0.320832 0.137224
1 1 0.316842 0.236686 0.171371
2 1 0.172055 0.309657 0.25996
3 1 0.265286 0.221813 0.291803
5 1 0.189428 0.201915 0.185321
6 1 0.385482 0.272754 0.304081
4 1 0.297338 0.346766 0.241265
ITEM: TIMESTEP
21000
ITEM: NUMBER OF ATOMS
7
ITEM: BOX BOUNDS pp pp pp
0.0000000000000000e+00 2.0000000000000000e+01
0.0000000000000000e+00 2.0000000000000000e+01
0.0000000000000000e+00 2.0000000000000000e+01
ITEM: ATOMS id type xs ys zs
7 1 0.221007 0.320588 0.137246
1 1 0.317848 0.237438 0.173868
2 1 0.171025 0.309587 0.259134
3 1 0.263991 0.222387 0.293352
5 1 0.190493 0.201634 0.185358
6 1 0.385795 0.270824 0.299505
4 1 0.296204 0.347966 0.242561
ITEM: TIMESTEP
22000
ITEM: NUMBER OF ATOMS
7
ITEM: BOX BOUNDS pp pp pp
0.0000000000000000e+00 2.0000000000000000e+01
0.0000000000000000e+00 2.0000000000000000e+01
0.0000000000000000e+00 2.0000000000000000e+01
ITEM: ATOMS id type xs ys zs
7 1 0.222178 0.320343 0.13734
1 1 0.318856 0.238141 0.176243
2 1 0.169877 0.309528 0.258259
3 1 0.262759 0.223222 0.294886
5 1 0.191657 0.20136 0.185464
6 1 0.386021 0.268864 0.294803
4 1 0.295015 0.348966 0.244029
ITEM: TIMESTEP
23000
ITEM: NUMBER OF ATOMS
7
ITEM: BOX BOUNDS pp pp pp
0.0000000000000000e+00 2.0000000000000000e+01
0.0000000000000000e+00 2.0000000000000000e+01
0.0000000000000000e+00 2.0000000000000000e+01
ITEM: ATOMS id type xs ys zs
7 1 0.223415 0.320139 0.137541
1 1 0.319918 0.238744 0.178408
2 1 0.168479 0.309485 0.257267
3 1 0.261704 0.224575 0.296292
5 1 0.19288 0.201104 0.185685
6 1 0.38622 0.266894 0.290059
4 1 0.293745 0.349483 0.245772
ITEM: TIMESTEP
24000
ITEM: NUMBER OF ATOMS
7
ITEM: BOX BOUNDS pp pp pp
0.0000000000000000e+00 2.0000000000000000e+01
0.0000000000000000e+00 2.0000000000000000e+01
0.0000000000000000e+00 2.0000000000000000e+01
ITEM: ATOMS id type xs ys zs
7 1 0.224296 0.320356 0.137902
1 1 0.320134 0.238509 0.177965
2 1 0.166251 0.309506 0.255907
3 1 0.261792 0.22784 0.296657
5 1 0.193638 0.200838 0.186242
6 1 0.387729 0.265734 0.288147
4 1 0.292522 0.34764 0.248203
ITEM: TIMESTEP
25000
ITEM: NUMBER OF ATOMS
7
ITEM: BOX BOUNDS pp pp pp
0.0000000000000000e+00 2.0000000000000000e+01
0.0000000000000000e+00 2.0000000000000000e+01
0.0000000000000000e+00 2.0000000000000000e+01
ITEM: ATOMS id type xs ys zs
7 1 0.225179 0.320192 0.138614
1 1 0.321004 0.238149 0.177627
2 1 0.164746 0.309843 0.255784
3 1 0.26136 0.228355 0.296943
5 1 0.194614 0.201041 0.186805
6 1 0.387489 0.265158 0.286573
4 1 0.29197 0.347685 0.248679
ITEM: TIMESTEP
26000
ITEM: NUMBER OF ATOMS
7
ITEM: BOX BOUNDS pp pp pp
0.0000000000000000e+00 2.0000000000000000e+01
0.0000000000000000e+00 2.0000000000000000e+01
0.0000000000000000e+00 2.0000000000000000e+01
ITEM: ATOMS id type xs ys zs
7 1 0.223742 0.319944 0.137925
1 1 0.32032 0.238821 0.178855
2 1 0.166389 0.30963 0.256301
3 1 0.261734 0.226857 0.296109
5 1 0.193319 0.201343 0.185894
6 1 0.38807 0.265909 0.288797
4 1 0.292788 0.34792 0.247144
ITEM: TIMESTEP
27000
ITEM: NUMBER OF ATOMS
7
ITEM: BOX BOUNDS pp pp pp
0.0000000000000000e+00 2.0000000000000000e+01
0.0000000000000000e+00 2.0000000000000000e+01
0.0000000000000000e+00 2.0000000000000000e+01
ITEM: ATOMS id type xs ys zs
7 1 0.224493 0.320291 0.138182
1 1 0.32036 0.238295 0.17758
2 1 0.165997 0.309658 0.256121
3 1 0.261572 0.227688 0.296498
5 1 0.193888 0.200981 0.186438
6 1 0.387689 0.265788 0.288256
4 1 0.292363 0.347723 0.247949
ITEM: TIMESTEP
28000
ITEM: NUMBER OF ATOMS
7
ITEM: BOX BOUNDS pp pp pp
0.0000000000000000e+00 2.0000000000000000e+01
0.0000000000000000e+00 2.0000000000000000e+01
0.0000000000000000e+00 2.0000000000000000e+01
ITEM: ATOMS id type xs ys zs
7 1 0.224766 0.320573 0.137791
1 1 0.32013 0.238383 0.17765
2 1 0.165412 0.309503 0.255365
3 1 0.261557 0.228438 0.297464
5 1 0.193948 0.200433 0.186382
6 1 0.38835 0.2652 0.287222
4 1 0.2922 0.347894 0.24915
ITEM: TIMESTEP
29000
ITEM: NUMBER OF ATOMS
7
ITEM: BOX BOUNDS pp pp pp
0.0000000000000000e+00 2.0000000000000000e+01
0.0000000000000000e+00 2.0000000000000000e+01
0.0000000000000000e+00 2.0000000000000000e+01
ITEM: ATOMS id type xs ys zs
7 1 0.223302 0.319912 0.137351
1 1 0.320933 0.238414 0.178237
2 1 0.166372 0.309866 0.256872
3 1 0.262049 0.227615 0.296142
5 1 0.192842 0.201169 0.185377
6 1 0.388105 0.266113 0.289324
4 1 0.292759 0.347335 0.24772
ITEM: TIMESTEP
30000
ITEM: NUMBER OF ATOMS
7
ITEM: BOX BOUNDS pp pp pp
0.0000000000000000e+00 2.0000000000000000e+01
0.0000000000000000e+00 2.0000000000000000e+01
0.0000000000000000e+00 2.0000000000000000e+01
ITEM: ATOMS id type xs ys zs
7 1 0.224847 0.32013 0.138042
1 1 0.320262 0.238311 0.177556
2 1 0.16631 0.309736 0.256511
3 1 0.261433 0.22782 0.296733
5 1 0.194248 0.200841 0.186289
6 1 0.38704 0.265733 0.287709
4 1 0.292223 0.347853 0.248185
ITEM: TIMESTEP
31000
ITEM: NUMBER OF ATOMS
7
ITEM: BOX BOUNDS pp pp pp
0.0000000000000000e+00 2.0000000000000000e+01
0.0000000000000000e+00 2.0000000000000000e+01
0.0000000000000000e+00 2.0000000000000000e+01
ITEM: ATOMS id type xs ys zs
7 1 0.22447 0.320677 0.138415
1 1 0.319763 0.238756 0.178341
2 1 0.164653 0.309492 0.254856
3 1 0.262161 0.228102 0.296287
5 1 0.193746 0.200902 0.186859
6 1 0.38889 0.265417 0.288101
4 1 0.292681 0.347078 0.248166
ITEM: TIMESTEP
32000
ITEM: NUMBER OF ATOMS
7
ITEM: BOX BOUNDS pp pp pp
0.0000000000000000e+00 2.0000000000000000e+01
0.0000000000000000e+00 2.0000000000000000e+01
0.0000000000000000e+00 2.0000000000000000e+01
ITEM: ATOMS id type xs ys zs
7 1 0.224402 0.319571 0.138164
1 1 0.320747 0.238279 0.177786
2 1 0.166212 0.310128 0.257418
3 1 0.261347 0.226767 0.296152
5 1 0.194104 0.201458 0.185936
6 1 0.387062 0.266054 0.288516
4 1 0.292488 0.348166 0.247052
ITEM: TIMESTEP
33000
ITEM: NUMBER OF ATOMS
7
ITEM: BOX BOUNDS pp pp pp
0.0000000000000000e+00 2.0000000000000000e+01
0.0000000000000000e+00 2.0000000000000000e+01
0.0000000000000000e+00 2.0000000000000000e+01
ITEM: ATOMS id type xs ys zs
7 1 0.224425 0.32001 0.137551
1 1 0.319713 0.238609 0.177946
2 1 0.165703 0.309737 0.256128
3 1 0.261716 0.227908 0.297028
5 1 0.193838 0.20077 0.185778
6 1 0.388477 0.265517 0.288086
4 1 0.29249 0.347873 0.248507
ITEM: TIMESTEP
34000
ITEM: NUMBER OF ATOMS
7
ITEM: BOX BOUNDS pp pp pp
0.0000000000000000e+00 2.0000000000000000e+01
0.0000000000000000e+00 2.0000000000000000e+01
0.0000000000000000e+00 2.0000000000000000e+01
ITEM: ATOMS id type xs ys zs
7 1 0.224539 0.320283 0.137748
1 1 0.320622 0.237996 0.177007
2 1 0.164739 0.310082 0.256371
3 1 0.261874 0.228361 0.296817
5 1 0.193859 0.200681 0.186122
6 1 0.388324 0.265635 0.288281
4 1 0.292405 0.347385 0.248677
ITEM: TIMESTEP
35000
ITEM: NUMBER OF ATOMS
7
ITEM: BOX BOUNDS pp pp pp
0.0000000000000000e+00 2.0000000000000000e+01
0.0000000000000000e+00 2.0000000000000000e+01
0.0000000000000000e+00 2.0000000000000000e+01
ITEM: ATOMS id type xs ys zs
7 1 0.224677 0.320596 0.137516
1 1 0.319416 0.238428 0.177311
2 1 0.16712 0.309607 0.256707
3 1 0.26166 0.226422 0.297048
5 1 0.193813 0.200275 0.186181
6 1 0.386613 0.266254 0.288727
4 1 0.293063 0.348841 0.247535
ITEM: TIMESTEP
36000
ITEM: NUMBER OF ATOMS
7
ITEM: BOX BOUNDS pp pp pp
0.0000000000000000e+00 2.0000000000000000e+01
0.0000000000000000e+00 2.0000000000000000e+01
0.0000000000000000e+00 2.0000000000000000e+01
ITEM: ATOMS id type xs ys zs
7 1 0.22393 0.319578 0.137899
1 1 0.320084 0.238699 0.178402
2 1 0.165594 0.309937 0.256555
3 1 0.261771 0.226934 0.296264
5 1 0.193635 0.201476 0.185665
6 1 0.388532 0.265842 0.288924
4 1 0.292816 0.347958 0.247315
ITEM: TIMESTEP
37000
ITEM: NUMBER OF ATOMS
7
ITEM: BOX BOUNDS pp pp pp
0.0000000000000000e+00 2.0000000000000000e+01
0.0000000000000000e+00 2.0000000000000000e+01
0.0000000000000000e+00 2.0000000000000000e+01
ITEM: ATOMS id type xs ys zs
7 1 0.225674 0.319927 0.138678
1 1 0.319842 0.238357 0.177405
2 1 0.165057 0.309634 0.255464
3 1 0.261087 0.227971 0.297584
5 1 0.195178 0.201043 0.186762
6 1 0.387531 0.265029 0.28628
4 1 0.291994 0.348462 0.248851
ITEM: TIMESTEP
38000
ITEM: NUMBER OF ATOMS
7
ITEM: BOX BOUNDS pp pp pp
0.0000000000000000e+00 2.0000000000000000e+01
0.0000000000000000e+00 2.0000000000000000e+01
0.0000000000000000e+00 2.0000000000000000e+01
ITEM: ATOMS id type xs ys zs
7 1 0.22408 0.320172 0.138154
1 1 0.319972 0.238524 0.1779
2 1 0.165612 0.309693 0.255963
3 1 0.262301 0.227423 0.296132
5 1 0.193564 0.201209 0.186269
6 1 0.387769 0.266058 0.288975
4 1 0.293063 0.347344 0.24763
ITEM: TIMESTEP
39000
ITEM: NUMBER OF ATOMS
7
ITEM: BOX BOUNDS pp pp pp
0.0000000000000000e+00 2.0000000000000000e+01
0.0000000000000000e+00 2.0000000000000000e+01
0.0000000000000000e+00 2.0000000000000000e+01
ITEM: ATOMS id type xs ys zs
7 1 0.224215 0.319871 0.137635
1 1 0.319707 0.238849 0.178535
2 1 0.166935 0.309731 0.256895
3 1 0.261842 0.225596 0.296838
5 1 0.193722 0.201 0.185713
6 1 0.386407 0.266231 0.288538
4 1 0.293534 0.349145 0.246868
ITEM: TIMESTEP
40000
ITEM: NUMBER OF ATOMS
7
ITEM: BOX BOUNDS pp pp pp
0.0000000000000000e+00 2.0000000000000000e+01
0.0000000000000000e+00 2.0000000000000000e+01
0.0000000000000000e+00 2.0000000000000000e+01
ITEM: ATOMS id type xs ys zs
7 1 0.22442 0.319746 0.137959
1 1 0.319967 0.238556 0.177976
2 1 0.165413 0.309759 0.256
3 1 0.261885 0.228146 0.29674
5 1 0.194013 0.201206 0.185903
6 1 0.388173 0.265546 0.287965
4 1 0.292492 0.347464 0.248481
ITEM: TIMESTEP
41000
ITEM: NUMBER OF ATOMS
7
ITEM: BOX BOUNDS pp pp pp
0.0000000000000000e+00 2.0000000000000000e+01
0.0000000000000000e+00 2.0000000000000000e+01
0.0000000000000000e+00 2.0000000000000000e+01
ITEM: ATOMS id type xs ys zs
7 1 0.224932 0.32005 0.138653
1 1 0.320157 0.23789 0.176448
2 1 0.165161 0.309664 0.255604
3 1 0.261586 0.228197 0.296969
5 1 0.19446 0.201258 0.186699
6 1 0.387823 0.265657 0.288018
4 1 0.292243 0.347707 0.248632
ITEM: TIMESTEP
42000
ITEM: NUMBER OF ATOMS
7
ITEM: BOX BOUNDS pp pp pp
0.0000000000000000e+00 2.0000000000000000e+01
0.0000000000000000e+00 2.0000000000000000e+01
0.0000000000000000e+00 2.0000000000000000e+01
ITEM: ATOMS id type xs ys zs
7 1 0.223579 0.319855 0.137779
1 1 0.319773 0.238499 0.177711
2 1 0.166861 0.309488 0.256247
3 1 0.261907 0.226697 0.2965
5 1 0.193186 0.201371 0.185701
6 1 0.38798 0.266309 0.289729
4 1 0.293076 0.348205 0.247356
ITEM: TIMESTEP
43000
ITEM: NUMBER OF ATOMS
7
ITEM: BOX BOUNDS pp pp pp
0.0000000000000000e+00 2.0000000000000000e+01
0.0000000000000000e+00 2.0000000000000000e+01
0.0000000000000000e+00 2.0000000000000000e+01
ITEM: ATOMS id type xs ys zs
7 1 0.224208 0.319577 0.138017
1 1 0.320549 0.238474 0.178142
2 1 0.165195 0.30981 0.255988
3 1 0.261664 0.228124 0.296812
5 1 0.193904 0.201439 0.185799
6 1 0.388527 0.265382 0.287783
4 1 0.292316 0.347618 0.248482
ITEM: TIMESTEP
44000
ITEM: NUMBER OF ATOMS
7
ITEM: BOX BOUNDS pp pp pp
0.0000000000000000e+00 2.0000000000000000e+01
0.0000000000000000e+00 2.0000000000000000e+01
0.0000000000000000e+00 2.0000000000000000e+01
ITEM: ATOMS id type xs ys zs
7 1 0.225544 0.321445 0.13778
1 1 0.319456 0.238746 0.178122
2 1 0.16636 0.309437 0.255804
3 1 0.261338 0.227445 0.297033
5 1 0.194277 0.199555 0.18708
6 1 0.387043 0.26547 0.287061
4 1 0.292345 0.348325 0.248143
ITEM: TIMESTEP
45000
ITEM: NUMBER OF ATOMS
7
ITEM: BOX BOUNDS pp pp pp
0.0000000000000000e+00 2.0000000000000000e+01
0.0000000000000000e+00 2.0000000000000000e+01
0.0000000000000000e+00 2.0000000000000000e+01
ITEM: ATOMS id type xs ys zs
7 1 0.22369 0.320301 0.137545
1 1 0.32113 0.238562 0.178728
2 1 0.164724 0.310333 0.256981
3 1 0.262285 0.227875 0.295371
5 1 0.19306 0.20089 0.185841
6 1 0.388743 0.265896 0.289192
4 1 0.292731 0.346566 0.247366
ITEM: TIMESTEP
46000
ITEM: NUMBER OF ATOMS
7
ITEM: BOX BOUNDS pp pp pp
0.0000000000000000e+00 2.0000000000000000e+01
0.0000000000000000e+00 2.0000000000000000e+01
0.0000000000000000e+00 2.0000000000000000e+01
ITEM: ATOMS id type xs ys zs
7 1 0.224939 0.320341 0.13725
1 1 0.319847 0.238649 0.178128
2 1 0.166359 0.309705 0.256466
3 1 0.261147 0.227898 0.297451
5 1 0.194108 0.20015 0.185861
6 1 0.387905 0.265286 0.287153
4 1 0.292057 0.348395 0.248715
ITEM: TIMESTEP
47000
ITEM: NUMBER OF ATOMS
7
ITEM: BOX BOUNDS pp pp pp
0.0000000000000000e+00 2.0000000000000000e+01
0.0000000000000000e+00 2.0000000000000000e+01
0.0000000000000000e+00 2.0000000000000000e+01
ITEM: ATOMS id type xs ys zs
7 1 0.224365 0.320128 0.13805
1 1 0.320736 0.237921 0.176894
2 1 0.165798 0.30999 0.256816
3 1 0.261593 0.228042 0.296197
5 1 0.19382 0.201049 0.186212
6 1 0.387868 0.265998 0.28889
4 1 0.292183 0.347294 0.247964
ITEM: TIMESTEP
48000
ITEM: NUMBER OF ATOMS
7
ITEM: BOX BOUNDS pp pp pp
0.0000000000000000e+00 2.0000000000000000e+01
0.0000000000000000e+00 2.0000000000000000e+01
0.0000000000000000e+00 2.0000000000000000e+01
ITEM: ATOMS id type xs ys zs
7 1 0.223923 0.320307 0.1378
1 1 0.319624 0.238611 0.177893
2 1 0.166758 0.309335 0.255804
3 1 0.261831 0.227483 0.296526
5 1 0.193308 0.200958 0.186071
6 1 0.388233 0.26597 0.289051
4 1 0.292684 0.347762 0.247879
ITEM: TIMESTEP
49000
ITEM: NUMBER OF ATOMS
7
ITEM: BOX BOUNDS pp pp pp
0.0000000000000000e+00 2.0000000000000000e+01
0.0000000000000000e+00 2.0000000000000000e+01
0.0000000000000000e+00 2.0000000000000000e+01
ITEM: ATOMS id type xs ys zs
7 1 0.225028 0.319743 0.138584
1 1 0.320798 0.238385 0.178079
2 1 0.165619 0.309797 0.256225
3 1 0.260904 0.228273 0.296604
5 1 0.194662 0.201365 0.186462
6 1 0.387812 0.265155 0.28677
4 1 0.29154 0.347705 0.248299
ITEM: TIMESTEP
50000
ITEM: NUMBER OF ATOMS
7
ITEM: BOX BOUNDS pp pp pp
0.0000000000000000e+00 2.0000000000000000e+01
0.0000000000000000e+00 2.0000000000000000e+01
0.0000000000000000e+00 2.0000000000000000e+01
ITEM: ATOMS id type xs ys zs
7 1 0.223678 0.320357 0.137931
1 1 0.320326 0.23883 0.17888
2 1 0.166353 0.309489 0.255928
3 1 0.262214 0.227232 0.295971
5 1 0.19309 0.201114 0.186159
6 1 0.387664 0.266008 0.288783
4 1 0.293037 0.347394 0.247371
ITEM: TIMESTEP
51000
ITEM: NUMBER OF ATOMS
7
ITEM: BOX BOUNDS pp pp pp
0.0000000000000000e+00 2.0000000000000000e+01
0.0000000000000000e+00 2.0000000000000000e+01
0.0000000000000000e+00 2.0000000000000000e+01
ITEM: ATOMS id type xs ys zs
7 1 0.224657 0.320805 0.137992
1 1 0.320675 0.238319 0.177839
2 1 0.165641 0.309712 0.256028
3 1 0.261831 0.227679 0.29669
5 1 0.193788 0.200465 0.186664
6 1 0.387141 0.265697 0.287684
4 1 0.29263 0.347747 0.248128
ITEM: TIMESTEP
52000
ITEM: NUMBER OF ATOMS
7
ITEM: BOX BOUNDS pp pp pp
0.0000000000000000e+00 2.0000000000000000e+01
0.0000000000000000e+00 2.0000000000000000e+01
0.0000000000000000e+00 2.0000000000000000e+01
ITEM: ATOMS id type xs ys zs
7 1 0.224099 0.320179 0.137634
1 1 0.320876 0.238418 0.17821
2 1 0.165854 0.309748 0.256253
3 1 0.261542 0.227552 0.296974
5 1 0.19349 0.200855 0.185895
6 1 0.388029 0.265538 0.287854
4 1 0.292473 0.348134 0.248204
ITEM: TIMESTEP
53000
ITEM: NUMBER OF ATOMS
7
ITEM: BOX BOUNDS pp pp pp
0.0000000000000000e+00 2.0000000000000000e+01
0.0000000000000000e+00 2.0000000000000000e+01
0.0000000000000000e+00 2.0000000000000000e+01
ITEM: ATOMS id type xs ys zs
7 1 0.223726 0.320277 0.137863
1 1 0.320526 0.238455 0.178079
2 1 0.166695 0.309477 0.256116
3 1 0.261425 0.227085 0.29646
5 1 0.193155 0.2011 0.186065
6 1 0.388359 0.265893 0.288941
4 1 0.292477 0.348137 0.247499
ITEM: TIMESTEP
54000
ITEM: NUMBER OF ATOMS
7
ITEM: BOX BOUNDS pp pp pp
0.0000000000000000e+00 2.0000000000000000e+01
0.0000000000000000e+00 2.0000000000000000e+01
0.0000000000000000e+00 2.0000000000000000e+01
ITEM: ATOMS id type xs ys zs
7 1 0.225105 0.32067 0.139108
1 1 0.320632 0.23785 0.176651
2 1 0.165908 0.309223 0.254989
3 1 0.261154 0.228349 0.296943
5 1 0.194432 0.201097 0.18747
6 1 0.387342 0.265459 0.287224
4 1 0.291789 0.347776 0.24864
ITEM: TIMESTEP
55000
ITEM: NUMBER OF ATOMS
7
ITEM: BOX BOUNDS pp pp pp
0.0000000000000000e+00 2.0000000000000000e+01
0.0000000000000000e+00 2.0000000000000000e+01
0.0000000000000000e+00 2.0000000000000000e+01
ITEM: ATOMS id type xs ys zs
7 1 0.223454 0.319776 0.138008
1 1 0.320692 0.238725 0.178852
2 1 0.166 0.309491 0.255709
3 1 0.262057 0.228138 0.296166
5 1 0.193146 0.201623 0.185796
6 1 0.388463 0.265651 0.288409
4 1 0.292552 0.34702 0.248083
ITEM: TIMESTEP
56000
ITEM: NUMBER OF ATOMS
7
ITEM: BOX BOUNDS pp pp pp
0.0000000000000000e+00 2.0000000000000000e+01
0.0000000000000000e+00 2.0000000000000000e+01
0.0000000000000000e+00 2.0000000000000000e+01
ITEM: ATOMS id type xs ys zs
7 1 0.224142 0.3201 0.13763
1 1 0.320648 0.238437 0.178114
2 1 0.167077 0.309663 0.256819
3 1 0.261816 0.227029 0.296783
5 1 0.193561 0.200884 0.185847
6 1 0.386214 0.26609 0.288066
4 1 0.292904 0.348221 0.247766
ITEM: TIMESTEP
57000
ITEM: NUMBER OF ATOMS
7
ITEM: BOX BOUNDS pp pp pp
0.0000000000000000e+00 2.0000000000000000e+01
0.0000000000000000e+00 2.0000000000000000e+01
0.0000000000000000e+00 2.0000000000000000e+01
ITEM: ATOMS id type xs ys zs
7 1 0.224591 0.320627 0.137982
1 1 0.320929 0.238009 0.177233
2 1 0.164908 0.309708 0.255554
3 1 0.261756 0.2284 0.297254
5 1 0.193801 0.200597 0.186528
6 1 0.38802 0.265385 0.28747
4 1 0.292358 0.347697 0.249003
ITEM: TIMESTEP
58000
ITEM: NUMBER OF ATOMS
7
ITEM: BOX BOUNDS pp pp pp
0.0000000000000000e+00 2.0000000000000000e+01
0.0000000000000000e+00 2.0000000000000000e+01
0.0000000000000000e+00 2.0000000000000000e+01
ITEM: ATOMS id type xs ys zs
7 1 0.224473 0.320098 0.137931
1 1 0.320984 0.23792 0.17705
2 1 0.165601 0.310037 0.256808
3 1 0.261325 0.227772 0.296653
5 1 0.193907 0.200946 0.186123
6 1 0.387939 0.265775 0.288381
4 1 0.292133 0.347876 0.248077
ITEM: TIMESTEP
59000
ITEM: NUMBER OF ATOMS
7
ITEM: BOX BOUNDS pp pp pp
0.0000000000000000e+00 2.0000000000000000e+01
0.0000000000000000e+00 2.0000000000000000e+01
0.0000000000000000e+00 2.0000000000000000e+01
ITEM: ATOMS id type xs ys zs
7 1 0.224619 0.320145 0.137747
1 1 0.319475 0.238571 0.177696
2 1 0.167072 0.309307 0.255934
3 1 0.261137 0.227565 0.297319
5 1 0.193989 0.200733 0.186045
6 1 0.387907 0.265581 0.287886
4 1 0.292165 0.348522 0.248397
ITEM: TIMESTEP
60000
ITEM: NUMBER OF ATOMS
7
ITEM: BOX BOUNDS pp pp pp
0.0000000000000000e+00 2.0000000000000000e+01
0.0000000000000000e+00 2.0000000000000000e+01
0.0000000000000000e+00 2.0000000000000000e+01
ITEM: ATOMS id type xs ys zs
7 1 0.223702 0.319773 0.138183
1 1 0.320216 0.238237 0.177347
2 1 0.165337 0.30972 0.255856
3 1 0.262066 0.228865 0.295842
5 1 0.193398 0.201637 0.185964
6 1 0.389442 0.265845 0.289506
4 1 0.292202 0.346346 0.248326
ITEM: TIMESTEP
61000
ITEM: NUMBER OF ATOMS
7
ITEM: BOX BOUNDS pp pp pp
0.0000000000000000e+00 2.0000000000000000e+01
0.0000000000000000e+00 2.0000000000000000e+01
0.0000000000000000e+00 2.0000000000000000e+01
ITEM: ATOMS id type xs ys zs
7 1 0.225237 0.320224 0.137755
1 1 0.319976 0.238554 0.177974
2 1 0.167253 0.30976 0.257169
3 1 0.261005 0.22594 0.297381
5 1 0.19451 0.200431 0.186206
6 1 0.385645 0.265879 0.287188
4 1 0.292736 0.349636 0.247351
ITEM: TIMESTEP
62000
ITEM: NUMBER OF ATOMS
7
ITEM: BOX BOUNDS pp pp pp
0.0000000000000000e+00 2.0000000000000000e+01
0.0000000000000000e+00 2.0000000000000000e+01
0.0000000000000000e+00 2.0000000000000000e+01
ITEM: ATOMS id type xs ys zs
7 1 0.223697 0.320463 0.137258
1 1 0.320462 0.238705 0.178657
2 1 0.166037 0.309935 0.256831
3 1 0.262265 0.227216 0.295956
5 1 0.192953 0.200599 0.185741
6 1 0.387862 0.266132 0.289222
4 1 0.293086 0.347374 0.247359
ITEM: TIMESTEP
63000
ITEM: NUMBER OF ATOMS
7
ITEM: BOX BOUNDS pp pp pp
0.0000000000000000e+00 2.0000000000000000e+01
0.0000000000000000e+00 2.0000000000000000e+01
0.0000000000000000e+00 2.0000000000000000e+01
ITEM: ATOMS id type xs ys zs
7 1 0.225758 0.321281 0.137833
1 1 0.320415 0.238244 0.177499
2 1 0.164368 0.30989 0.255663
3 1 0.260928 0.227938 0.297695
5 1 0.194544 0.199603 0.187044
6 1 0.388464 0.264842 0.286402
4 1 0.291886 0.348626 0.248887
ITEM: TIMESTEP
64000
ITEM: NUMBER OF ATOMS
7
ITEM: BOX BOUNDS pp pp pp
0.0000000000000000e+00 2.0000000000000000e+01
0.0000000000000000e+00 2.0000000000000000e+01
0.0000000000000000e+00 2.0000000000000000e+01
ITEM: ATOMS id type xs ys zs
7 1 0.224007 0.319581 0.137874
1 1 0.32036 0.238433 0.177912
2 1 0.165935 0.30986 0.256582
3 1 0.261377 0.227167 0.296588
5 1 0.193698 0.201426 0.185663
6 1 0.388559 0.265773 0.288765
4 1 0.292426 0.348184 0.247639
ITEM: TIMESTEP
65000
ITEM: NUMBER OF ATOMS
7
ITEM: BOX BOUNDS pp pp pp
0.0000000000000000e+00 2.0000000000000000e+01
0.0000000000000000e+00 2.0000000000000000e+01
0.0000000000000000e+00 2.0000000000000000e+01
ITEM: ATOMS id type xs ys zs
7 1 0.223892 0.319977 0.138249
1 1 0.319845 0.238297 0.177259
2 1 0.166492 0.309465 0.255967
3 1 0.261623 0.226983 0.296396
5 1 0.193497 0.201476 0.186176
6 1 0.388325 0.266153 0.289566
4 1 0.292687 0.348073 0.247411
ITEM: TIMESTEP
66000
ITEM: NUMBER OF ATOMS
7
ITEM: BOX BOUNDS pp pp pp
0.0000000000000000e+00 2.0000000000000000e+01