LAMMPS (7 Feb 2024 - Update 1)
OMP_NUM_THREADS environment is not set. Defaulting to 1 thread. (src/comm.cpp:98)
  using 1 OpenMP thread(s) per MPI task
# EAM potentiel for W system
# .....
#-------------Define units and atom style------------

units		metal
boundary p p p
atom_style	charge

############################################
#              CLI Variables               #
############################################
variable 		seed index 200093          #
variable 		N index 2                  #
variable 		iter index 5000000         #
variable 		iterther index 100000      #
variable 		iexport index 10000        #
variable 		tempchauf index 5000       #
variable 		Tdamp index 0.001          #
variable 		timestep index 0.0001      #
variable 		box_size index 80		   #
############################################
############################################


#-------------Simulation box--------------

lattice   sc 1.0
Lattice spacing in x,y,z = 1 1 1

region     bigbox block 0 ${box_size} 0 ${box_size} 0 ${box_size}
region     bigbox block 0 80 0 ${box_size} 0 ${box_size}
region     bigbox block 0 80 0 80 0 ${box_size}
region     bigbox block 0 80 0 80 0 80
create_box     2 bigbox
Created orthogonal box = (0 0 0) to (80 80 80)
  1 by 1 by 1 MPI processor grid

region          smallbox block 10 30 10 30 10 30 units box

#------------create atoms randomly in the small box--------

create_atoms    1 random ${N} ${seed} smallbox
create_atoms    1 random 100 ${seed} smallbox
create_atoms    1 random 100 200093 smallbox
Created 100 atoms
  using lattice units in orthogonal box = (0 0 0) to (80 80 80)
  create_atoms CPU = 0.001 seconds

mass * 183.84

#------------Define the interatomic potential -------------

pair_style eam/fs
pair_coeff * * ./w.eam2.fs W W

neighbor	0.3 bin
neigh_modify    delay 0 every 1 check yes

#--------------set initial velocity to all atoms------

velocity   all create  0.001 1563967 rot yes dist gaussian

# ---------- Run MD Heating ---------------------

fix              2 all nve
fix              3 all temp/berendsen  0.0 ${tempchauf} ${Tdamp}
fix              3 all temp/berendsen  0.0 5000 ${Tdamp}
fix              3 all temp/berendsen  0.0 5000 0.001
fix              4 all momentum 1 linear 1 1 1 angular rescale


timestep	${timestep}
timestep	0.0001


thermo 1000
thermo_style custom step  temp etotal epair ebond pe ke

dump 			1 all cfg 1000 ./dump/${N}/dump.tensile_*.cfg mass type xs ys zs vx vy vz mass q id
dump 			1 all cfg 1000 ./dump/100/dump.tensile_*.cfg mass type xs ys zs vx vy vz mass q id
dump			2 all atom 1000 ./tmp/${N}/tmp.dump
dump			2 all atom 1000 ./tmp/100/tmp.dump
dump_modify     1 element W W

run				${iter}
run				5000000
Neighbor list info ...
  update: every = 1 steps, delay = 0 steps, check = yes
  max neighbors/atom: 2000, page size: 100000
  master list distance cutoff = 5.8
  ghost atom cutoff = 5.8
  binsize = 2.9, bins = 28 28 28
  1 neighbor lists, perpetual/occasional/extra = 1 0 0
  (1) pair eam/fs, perpetual
      attributes: half, newton on
      pair build: half/bin/atomonly/newton
      stencil: half/bin/3d
      bin: standard
Per MPI rank memory allocation (min/avg/max) = 3.569 | 3.569 | 3.569 Mbytes
   Step          Temp          TotEng         E_pair         E_bond         PotEng         KinEng    
         0   0.001          30448.322      30448.322      0              30448.322      1.2796754e-05
      1000   25.982671     -345.44424     -345.77673      0             -345.77673      0.33249385   
      2000   11.119082     -366.15247     -366.29476      0             -366.29476      0.14228816   
      3000   9.218451      -376.57868     -376.69664      0             -376.69664      0.11796625   
      4000   9.619948      -384.83598     -384.95909      0             -384.95909      0.12310411   
      5000   10.689515     -392.88428     -393.02107      0             -393.02107      0.1367911    
      6000   11.558721     -400.85836     -401.00628      0             -401.00628      0.14791412   
      7000   12.614544     -408.80854     -408.96996      0             -408.96996      0.16142522   
      8000   13.851534     -416.97181     -417.14906      0             -417.14906      0.17725468   
      9000   14.911982     -425.36287     -425.55369      0             -425.55369      0.19082497   
     10000   16.045465     -433.86356     -434.06889      0             -434.06889      0.20532987   
     11000   16.977789     -442.50339     -442.72065      0             -442.72065      0.21726059   
     12000   17.74659      -451.05297     -451.28007      0             -451.28007      0.22709875   
     13000   18.376695     -458.91494     -459.1501       0             -459.1501       0.23516206   
     14000   19.078237     -466.27393     -466.51807      0             -466.51807      0.24413952   
     15000   19.47407      -473.19353     -473.44274      0             -473.44274      0.24920489   
     16000   19.947107     -479.16301     -479.41827      0             -479.41827      0.25525823   
     17000   20.439992     -484.3133      -484.57486      0             -484.57486      0.26156556   
     18000   21.294834     -489.15386     -489.42636      0             -489.42636      0.27250477   
     19000   22.397849     -493.84724     -494.13386      0             -494.13386      0.28661977   
     20000   23.16697      -498.62897     -498.92544      0             -498.92544      0.29646202   
     21000   23.965302     -502.97669     -503.28336      0             -503.28336      0.30667808   
     22000   24.471918     -506.7418      -507.05496      0             -507.05496      0.31316112   
     23000   24.946078     -510.13321     -510.45244      0             -510.45244      0.31922883   
     24000   25.45356      -512.47724     -512.80296      0             -512.80296      0.32572296   
     25000   26.354815     -514.49564     -514.83289      0             -514.83289      0.33725609   
     26000   27.086499     -516.1979      -516.54452      0             -516.54452      0.34661928   
     27000   28.073907     -517.7305      -518.08976      0             -518.08976      0.35925489   
     28000   29.008972     -519.22466     -519.59588      0             -519.59588      0.37122069   
     29000   29.674381     -520.31211     -520.69184      0             -520.69184      0.37973576   
     30000   30.89445      -521.38668     -521.78203      0             -521.78203      0.39534869   
     31000   31.992525     -522.64545     -523.05485      0             -523.05485      0.40940049   
     32000   33.141328     -524.15093     -524.57503      0             -524.57503      0.42410143   
     33000   34.258486     -525.8369      -526.27529      0             -526.27529      0.43839743   
     34000   35.083354     -527.58668     -528.03564      0             -528.03564      0.44895306   
     35000   36.445485     -529.33103     -529.79742      0             -529.79742      0.46638392   
     36000   38.050016     -531.84326     -532.33017      0             -532.33017      0.48691671   
     37000   38.99618      -534.7977      -535.29672      0             -535.29672      0.49902453   
     38000   39.615641     -537.19289     -537.69984      0             -537.69984      0.50695162   
     39000   40.276889     -539.0238      -539.53921      0             -539.53921      0.51541345   
     40000   41.299996     -540.78369     -541.3122       0             -541.3122       0.5285059    
     41000   42.304068     -542.62703     -543.16839      0             -543.16839      0.54135476   
     42000   42.761533     -544.23752     -544.78473      0             -544.78473      0.54720883   
     43000   44.053282     -545.46875     -546.03249      0             -546.03249      0.56373903   
     44000   44.856071     -546.55651     -547.13052      0             -547.13052      0.57401212   
     45000   45.911328     -547.64502     -548.23253      0             -548.23253      0.58751599   
     46000   46.824048     -548.59875     -549.19794      0             -549.19794      0.59919584   
     47000   48.048866     -549.94441     -550.55928      0             -550.55928      0.61486953   
     48000   49.089483     -551.51614     -552.14432      0             -552.14432      0.62818606   
     49000   49.796885     -552.76904     -553.40628      0             -553.40628      0.63723851   
     50000   51.434605     -554.11908     -554.77727      0             -554.77727      0.65819601   
     51000   52.541731     -556.37072     -557.04309      0             -557.04309      0.67236362   
     52000   53.35385      -558.16686     -558.84962      0             -558.84962      0.68275612   
     53000   54.531668     -560.37344     -561.07127      0             -561.07127      0.69782835   
     54000   55.145561     -562.13153     -562.83721      0             -562.83721      0.7056842    
     55000   56.051939     -563.70944     -564.42672      0             -564.42672      0.71728289   
     56000   56.383188     -564.76087     -565.4824       0             -565.4824       0.7215218    
     57000   57.914338     -565.87277     -566.61389      0             -566.61389      0.74111556   
     58000   58.708233     -567.19629     -567.94756      0             -567.94756      0.75127484   
     59000   60.368712     -568.94284     -569.71536      0             -569.71536      0.77252358   
     60000   59.758149     -570.23795     -571.00267      0             -571.00267      0.76471036   
     61000   61.66056      -570.51175     -571.30081      0             -571.30081      0.78905505   
     62000   63.099062     -571.91173     -572.7192       0             -572.7192       0.8074632    
     63000   64.036081     -573.13129     -573.95074      0             -573.95074      0.819454     
     64000   64.689128     -574.49348     -575.32129      0             -575.32129      0.82781088   
     65000   64.605488     -574.21828     -575.04502      0             -575.04502      0.82674057   
     66000   66.84124      -574.4984      -575.35375      0             -575.35375      0.85535093   
     67000   66.926042     -575.12144     -575.97787      0             -575.97787      0.85643612   
     68000   68.458299     -575.14905     -576.02509      0             -576.02509      0.87604403   
     69000   69.982078     -576.12246     -577.01801      0             -577.01801      0.89554347   
     70000   71.965049     -578.29894     -579.21986      0             -579.21986      0.92091905   
     71000   72.315562     -580.68276     -581.60817      0             -581.60817      0.92540449   
     72000   72.620785     -581.9483      -582.87761      0             -582.87761      0.92931035   
     73000   74.204768     -583.17765     -584.12723      0             -584.12723      0.94958019   
     74000   75.346437     -585.11202     -586.07621      0             -586.07621      0.96418984   
     75000   76.425939     -587.30558     -588.28358      0             -588.28358      0.97800396   
     76000   77.291735     -588.66337     -589.65245      0             -589.65245      0.98908335   
     77000   78.291747     -590.19771     -591.19959      0             -591.19959      1.0018803    
     78000   79.401644     -591.8674      -592.88349      0             -592.88349      1.0160833    
     79000   79.987031     -593.5153      -594.53888      0             -594.53888      1.0235744    
     80000   80.710495     -594.2678      -595.30063      0             -595.30063      1.0328324    
     81000   82.221453     -595.75116     -596.80333      0             -596.80333      1.0521677    
     82000   82.950743     -596.86743     -597.92893      0             -597.92893      1.0615003    
     83000   83.113775     -597.92556     -598.98915      0             -598.98915      1.0635866    
     84000   84.133036     -598.47073     -599.54736      0             -599.54736      1.0766298    
     85000   85.617045     -598.90657     -600.00219      0             -600.00219      1.0956203    
     86000   85.958542     -598.92623     -600.02622      0             -600.02622      1.0999903    
     87000   87.483343     -599.85261     -600.97211      0             -600.97211      1.1195028    
     88000   88.27576      -600.8642      -601.99384      0             -601.99384      1.1296432    
     89000   89.617704     -601.46647     -602.61329      0             -602.61329      1.1468157    
     90000   91.289815     -602.40272     -603.57094      0             -603.57094      1.1682133    
     91000   90.917386     -603.40485     -604.5683       0             -604.5683       1.1634475    
     92000   92.021423     -603.71233     -604.88991      0             -604.88991      1.1775755    
     93000   92.743855     -603.86364     -605.05046      0             -605.05046      1.1868203    
     94000   94.846687     -604.00959     -605.22332      0             -605.22332      1.2137298    
     95000   95.695415     -605.10252     -606.32711      0             -606.32711      1.2245907    
     96000   96.895487     -605.66371     -606.90366      0             -606.90366      1.2399478    
     97000   96.931377     -606.26331     -607.50372      0             -607.50372      1.240407     
     98000   97.996798     -606.75166     -608.0057       0             -608.0057       1.2540409    
     99000   98.872658     -606.90365     -608.1689       0             -608.1689       1.2652491    
    100000   100.34603     -607.28794     -608.57205      0             -608.57205      1.2841035    
    101000   101.57666     -607.80234     -609.10219      0             -609.10219      1.2998516    
    102000   102.97923     -608.12394     -609.44174      0             -609.44174      1.3177999    
    103000   103.00291     -608.40884     -609.72695      0             -609.72695      1.3181029    
    104000   103.86209     -608.23644     -609.56554      0             -609.56554      1.3290977    
    105000   105.51447     -608.72303     -610.07327      0             -610.07327      1.3502428    
    106000   106.24086     -608.75378     -610.11332      0             -610.11332      1.3595382    
    107000   107.05212     -608.82895     -610.19887      0             -610.19887      1.3699197    
    108000   107.56376     -608.66561     -610.04208      0             -610.04208      1.376467     
    109000   109.43041     -608.81284     -610.21319      0             -610.21319      1.400354     
    110000   110.63424     -608.86575     -610.28151      0             -610.28151      1.4157592    
    111000   110.71718     -609.08274     -610.49956      0             -610.49956      1.4168205    
    112000   112.69551     -609.55836     -611.0005       0             -611.0005       1.4421367    
    113000   113.90936     -610.94981     -612.40748      0             -612.40748      1.45767      
    114000   115.6346      -612.62667     -614.10642      0             -614.10642      1.4797476    
    115000   115.80929     -613.91951     -615.40149      0             -615.40149      1.481983     
    116000   116.63285     -614.18065     -615.67318      0             -615.67318      1.4925219    
    117000   118.4974      -616.23616     -617.75255      0             -617.75255      1.5163821    
    118000   117.84902     -616.74781     -618.2559       0             -618.2559       1.5080849    
    119000   119.28619     -617.2896      -618.81608      0             -618.81608      1.5264761    
    120000   120.51966     -617.33741     -618.87967      0             -618.87967      1.5422605    
    121000   121.29784     -618.26957     -619.82179      0             -619.82179      1.5522187    
    122000   121.64628     -618.51585     -620.07253      0             -620.07253      1.5566776    
    123000   123.84339     -618.98526     -620.57005      0             -620.57005      1.5847934    
    124000   124.41583     -619.43099     -621.0231       0             -621.0231       1.5921188    
    125000   125.85169     -619.94694     -621.55743      0             -621.55743      1.6104931    
    126000   126.31846     -620.79499     -622.41145      0             -622.41145      1.6164663    
    127000   127.21683     -620.72424     -622.35221      0             -622.35221      1.6279625    
    128000   128.18463     -620.94815     -622.5885       0             -622.5885       1.6403473    
    129000   128.51268     -620.81998     -622.46453      0             -622.46453      1.6445452    
    130000   130.17968     -621.10523     -622.77111      0             -622.77111      1.6658774    
    131000   130.73501     -621.24131     -622.91429      0             -622.91429      1.6729837    
    132000   131.75535     -621.25114     -622.93718      0             -622.93718      1.6860408    
    133000   133.17261     -620.94123     -622.64541      0             -622.64541      1.7041772    
    134000   134.80829     -621.87356     -623.59867      0             -623.59867      1.7251085    
    135000   135.21736     -623.27832     -625.00867      0             -625.00867      1.7303434    
    136000   136.41114     -623.80443     -625.55005      0             -625.55005      1.7456199    
    137000   136.75224     -624.28234     -626.03232      0             -626.03232      1.7499848    
    138000   138.36631     -624.54963     -626.32027      0             -626.32027      1.7706397    
    139000   139.62054     -625.53808     -627.32477      0             -627.32477      1.7866897    
    140000   140.69905     -626.11756     -627.91805      0             -627.91805      1.8004911    
    141000   141.52044     -627.2472      -629.0582       0             -629.0582       1.8110023    
    142000   142.86026     -627.93153     -629.75968      0             -629.75968      1.8281476    
    143000   143.7923      -629.25846     -631.09854      0             -631.09854      1.8400748    
    144000   144.62528     -629.90388     -631.75461      0             -631.75461      1.8507342    
    145000   145.98136     -631.03071     -632.89879      0             -632.89879      1.8680875    
    146000   146.9434      -631.8544      -633.7348       0             -633.7348       1.8803986    
    147000   147.52222     -632.63473     -634.52253      0             -634.52253      1.8878056    
    148000   148.07093     -632.94702     -634.84185      0             -634.84185      1.8948273    
    149000   149.47096     -633.27983     -635.19257      0             -635.19257      1.9127432    
    150000   150.21977     -633.71404     -635.63637      0             -635.63637      1.9223255    
    151000   150.57295     -634.62334     -636.55018      0             -636.55018      1.926845     
    152000   152.75027     -635.33881     -637.29351      0             -637.29351      1.9547077    
    153000   152.98353     -636.27616     -638.23386      0             -638.23386      1.9576926    
    154000   153.76337     -636.47444     -638.44211      0             -638.44211      1.9676721    
    155000   155.07728     -637.01773     -639.00221      0             -639.00221      1.9844859    
    156000   155.99998     -637.41873     -639.41502      0             -639.41502      1.9962934    
    157000   156.93661     -637.52        -639.52828      0             -639.52828      2.0082793    
    158000   157.52628     -637.42317     -639.43899      0             -639.43899      2.0158251    
    159000   159.74727     -637.87588     -639.92013      0             -639.92013      2.0442466    
    160000   160.85247     -639.67191     -641.7303       0             -641.7303       2.0583896    
    161000   161.68441     -641.57673     -643.64576      0             -643.64576      2.0690357    
    162000   163.17388     -642.48366     -644.57176      0             -644.57176      2.0880961    
    163000   164.44658     -643.81353     -645.91791      0             -645.91791      2.1043825    
    164000   164.98279     -645.28719     -647.39843      0             -647.39843      2.1112442    
    165000   165.4186      -646.68861     -648.80543      0             -648.80543      2.1168212    
    166000   166.08081     -647.10181     -649.22711      0             -649.22711      2.1252953    
    167000   166.60811     -646.85896     -648.991        0             -648.991        2.132043     
    168000   167.04083     -646.52615     -648.66373      0             -648.66373      2.1375804    
    169000   169.99025     -646.85668     -649.032        0             -649.032        2.1753234    
    170000   171.80501     -648.25827     -650.45681      0             -650.45681      2.1985465    
    171000   170.65605     -649.7329      -651.91675      0             -651.91675      2.1838436    
    172000   171.06003     -649.07326     -651.26227      0             -651.26227      2.1890132    
    173000   174.059       -649.01321     -651.2406       0             -651.2406       2.2273903    
    174000   173.60587     -649.16518     -651.38678      0             -651.38678      2.2215916    
    175000   176.25498     -648.9711      -651.2266       0             -651.2266       2.2554917    
    176000   175.04694     -648.35341     -650.59345      0             -650.59345      2.2400327    
    177000   178.50254     -648.55586     -650.84011      0             -650.84011      2.2842532    
    178000   177.91648     -648.53789     -650.81464      0             -650.81464      2.2767535    
    179000   178.52292     -648.8941      -651.17861      0             -651.17861      2.284514     
    180000   180.32036     -648.64443     -650.95195      0             -650.95195      2.3075154    
    181000   181.37744     -649.24673     -651.56777      0             -651.56777      2.3210426    
    182000   181.186       -648.91859     -651.23718      0             -651.23718      2.3185927    
    183000   183.1282      -648.88396     -651.2274       0             -651.2274       2.3434466    
    184000   183.84489     -648.60224     -650.95486      0             -650.95486      2.3526179    
    185000   183.63372     -648.94211     -651.29203      0             -651.29203      2.3499156    
    186000   186.26211     -648.88084     -651.26439      0             -651.26439      2.3835505    
    187000   186.24438     -649.10419     -651.48752      0             -651.48752      2.3833236    
    188000   188.15184     -649.50936     -651.91709      0             -651.91709      2.4077329    
    189000   190.27997     -649.68215     -652.11711      0             -652.11711      2.4349661    
    190000   190.78739     -650.61985     -653.06131      0             -653.06131      2.4414593    
    191000   191.5155      -651.68804     -654.13882      0             -654.13882      2.4507768    
    192000   191.77649     -651.24507     -653.69919      0             -653.69919      2.4541166    
    193000   193.30184     -651.20546     -653.6791       0             -653.6791       2.4736362    
    194000   194.91482     -651.49621     -653.99048      0             -653.99048      2.494277     
    195000   195.26666     -651.95635     -654.45513      0             -654.45513      2.4987794    
    196000   196.27321     -652.32172     -654.83338      0             -654.83338      2.51166      
    197000   196.01227     -652.19689     -654.70521      0             -654.70521      2.5083209    
    198000   197.84335     -652.14182     -654.67357      0             -654.67357      2.5317528    
    199000   199.83744     -652.3708      -654.92807      0             -654.92807      2.5572706    
    200000   200.55951     -653.17573     -655.74224      0             -655.74224      2.5665108    
    201000   200.48112     -653.48388     -656.04939      0             -656.04939      2.5655077    
    202000   203.38714     -653.36872     -655.97142      0             -655.97142      2.6026952    
    203000   203.22643     -654.0391      -656.63974      0             -656.63974      2.6006387    
    204000   204.42578     -654.56173     -657.17771      0             -657.17771      2.6159865    
    205000   205.38978     -655.13828     -657.7666       0             -657.7666       2.6283226    
    206000   206.98471     -655.74194     -658.39067      0             -658.39067      2.6487325    
    207000   208.48326     -657.31924     -659.98715      0             -659.98715      2.6679091    
    208000   207.75255     -657.17763     -659.83619      0             -659.83619      2.6585583    
    209000   208.48328     -656.679       -659.34691      0             -659.34691      2.6679093    
    210000   210.91299     -657.4728      -660.17181      0             -660.17181      2.6990018    
    211000   210.98088     -657.65916     -660.35903      0             -660.35903      2.6998704    
    212000   212.42976     -657.99474     -660.71316      0             -660.71316      2.7184115    
    213000   210.59463     -657.16959     -659.86452      0             -659.86452      2.6949278    
    214000   214.91599     -657.2343      -659.98452      0             -659.98452      2.7502272    
    215000   215.77733     -657.77895     -660.5402       0             -660.5402       2.7612495    
    216000   215.58937     -657.14194     -659.90078      0             -659.90078      2.7588442    
    217000   216.61281     -657.09159     -659.86353      0             -659.86353      2.7719409    
    218000   215.8746      -657.25258     -660.01508      0             -660.01508      2.7624942    
    219000   218.81652     -657.20415     -660.00429      0             -660.00429      2.8001412    
    220000   219.80883     -656.82725     -659.64009      0             -659.64009      2.8128396    
    221000   220.44048     -656.93332     -659.75425      0             -659.75425      2.8209226    
    222000   221.62845     -657.22576     -660.06189      0             -660.06189      2.8361248    
    223000   223.74591     -656.92097     -659.78419      0             -659.78419      2.8632215    
    224000   223.88585     -657.53288     -660.39789      0             -660.39789      2.8650122    
    225000   226.33262     -657.18908     -660.0854       0             -660.0854       2.8963229    
    226000   224.99155     -657.1799      -660.05906      0             -660.05906      2.8791616    
    227000   226.27441     -657.04725     -659.94283      0             -659.94283      2.895578     
    228000   228.1406      -656.93802     -659.85748      0             -659.85748      2.9194592    
    229000   228.01389     -657.09262     -660.01046      0             -660.01046      2.9178377    
    230000   230.71552     -657.27224     -660.22465      0             -660.22465      2.9524098    
    231000   232.01516     -656.49523     -659.46428      0             -659.46428      2.969041     
    232000   232.01814     -657.63762     -660.6067       0             -660.6067       2.9690792    
    233000   232.13909     -656.04648     -659.01711      0             -659.01711      2.9706269    
    234000   233.06569     -656.97984     -659.96233      0             -659.96233      2.9824844    
    235000   236.36287     -656.87929     -659.90397      0             -659.90397      3.0246775    
    236000   235.2305      -656.80198     -659.81217      0             -659.81217      3.0101869    
    237000   235.89437     -656.73503     -659.75371      0             -659.75371      3.0186823    
    238000   238.86624     -656.80709     -659.86381      0             -659.86381      3.0567126    
    239000   239.72344     -656.30277     -659.37046      0             -659.37046      3.067682     
    240000   240.0597      -656.90565     -659.97763      0             -659.97763      3.071985     
    241000   239.91129     -657.28312     -660.3532       0             -660.3532       3.0700859    
    242000   241.58355     -656.60769     -659.69917      0             -659.69917      3.0914853    
    243000   243.79385     -656.4574      -659.57717      0             -659.57717      3.11977      
    244000   244.30353     -656.61346     -659.73975      0             -659.73975      3.1262922    
    245000   245.07364     -656.39993     -659.53608      0             -659.53608      3.1361472    
    246000   244.88339     -656.52493     -659.65864      0             -659.65864      3.1337126    
    247000   244.11257     -656.69406     -659.8179       0             -659.8179       3.1238486    
    248000   249.03384     -656.59754     -659.78436      0             -659.78436      3.1868249    
    249000   245.41626     -657.38935     -660.52988      0             -660.52988      3.1405316    
    250000   251.35479     -656.09915     -659.31568      0             -659.31568      3.2165255    
    251000   252.23981     -656.49793     -659.72578      0             -659.72578      3.2278509    
    252000   251.82897     -656.04874     -659.27134      0             -659.27134      3.2225934    
    253000   253.63395     -656.26923     -659.51492      0             -659.51492      3.2456913    
    254000   255.26283     -656.85078     -660.11732      0             -660.11732      3.2665357    
    255000   254.18391     -656.23181     -659.48454      0             -659.48454      3.2527291    
    256000   256.57404     -656.18878     -659.47209      0             -659.47209      3.283315     
    257000   257.5734      -656.73166     -660.02777      0             -660.02777      3.2961035    
    258000   257.24491     -655.91134     -659.20324      0             -659.20324      3.2918999    
    259000   259.1026      -656.94308     -660.25876      0             -660.25876      3.3156723    
    260000   260.68114     -656.27611     -659.61198      0             -659.61198      3.3358725    
    261000   260.45683     -655.64085     -658.97385      0             -658.97385      3.3330021    
    262000   263.11939     -656.07358     -659.44065      0             -659.44065      3.3670743    
    263000   263.47        -656.09318     -659.46474      0             -659.46474      3.3715608    
    264000   262.81469     -656.66171     -660.02489      0             -660.02489      3.363175     
    265000   265.5999      -657.26874     -660.66756      0             -660.66756      3.3988167    
    266000   265.82988     -655.60959     -659.01135      0             -659.01135      3.4017596    
    267000   268.24403     -656.66158     -660.09424      0             -660.09424      3.432653     
    268000   266.71825     -656.13406     -659.54719      0             -659.54719      3.4131279    
    269000   271.1279      -655.69712     -659.16668      0             -659.16668      3.4695571    
    270000   270.37829     -655.61965     -659.07961      0             -659.07961      3.4599646    
    271000   268.64323     -655.72443     -659.16219      0             -659.16219      3.4377614    
    272000   272.67211     -655.75578     -659.2451       0             -659.2451       3.489318     
    273000   273.5395      -655.69978     -659.20019      0             -659.20019      3.5004177    
    274000   273.16647     -656.21173     -659.70737      0             -659.70737      3.4956443    
    275000   270.71914     -655.44658     -658.9109       0             -658.9109       3.4643263    
    276000   279.44926     -655.25294     -658.82898      0             -658.82898      3.5760436    
    277000   276.16137     -655.94013     -659.4741       0             -659.4741       3.5339692    
    278000   278.69196     -656.12718     -659.69354      0             -659.69354      3.5663526    
    279000   277.15462     -655.27475     -658.82143      0             -658.82143      3.5466796    
    280000   279.62075     -655.69759     -659.27583      0             -659.27583      3.578238     
    281000   280.13839     -655.62958     -659.21444      0             -659.21444      3.5848622    
    282000   281.86718     -655.38654     -658.99353      0             -658.99353      3.606985     
    283000   282.32247     -656.40784     -660.02065      0             -660.02065      3.6128114    
    284000   282.38466     -655.07256     -658.68617      0             -658.68617      3.6136072    
    285000   285.04804     -655.24911     -658.8968       0             -658.8968       3.6476898    
    286000   286.89438     -655.68127     -659.35259      0             -659.35259      3.6713169    
    287000   288.1244      -655.06113     -658.74819      0             -658.74819      3.6870572    
    288000   285.85469     -655.43498     -659.09299      0             -659.09299      3.6580122    
    289000   291.92735     -655.37072     -659.10644      0             -659.10644      3.7357225    
    290000   288.28351     -656.2247      -659.91379      0             -659.91379      3.6890933    
    291000   293.27295     -654.0181      -657.77104      0             -657.77104      3.7529419    
    292000   292.24194     -656.07934     -659.81909      0             -659.81909      3.7397483    
    293000   291.2332      -655.0045      -658.73134      0             -658.73134      3.7268398    
    294000   292.38703     -655.38985     -659.13146      0             -659.13146      3.741605     
    295000   292.937       -655.05009     -658.79873      0             -658.79873      3.7486429    
    296000   296.16526     -655.62554     -659.41549      0             -659.41549      3.7899541    
    297000   296.85289     -654.64283     -658.44159      0             -658.44159      3.7987535    
    298000   298.51831     -655.45135     -659.27141      0             -659.27141      3.8200655    
    299000   300.40832     -654.57028     -658.41453      0             -658.41453      3.8442515    
    300000   299.3265      -655.35653     -659.18694      0             -659.18694      3.8304077    
    301000   297.6235      -655.22777     -659.03639      0             -659.03639      3.8086148    
    302000   301.68602     -654.76018     -658.62078      0             -658.62078      3.8606019    
    303000   302.92167     -654.80888     -658.68529      0             -658.68529      3.8764142    
    304000   302.87845     -655.07634     -658.9522       0             -658.9522       3.8758611    
    305000   303.96742     -655.12838     -659.01818      0             -659.01818      3.8897964    
    306000   308.73439     -655.01131     -658.96211      0             -658.96211      3.9507981    
    307000   308.19311     -654.65202     -658.59589      0             -658.59589      3.9438716    
    308000   308.2772      -655.02364     -658.96858      0             -658.96858      3.9449476    
    309000   310.15777     -655.34716     -659.31618      0             -659.31618      3.9690128    
    310000   311.64026     -654.67199     -658.65998      0             -658.65998      3.9879838    
    311000   310.63884     -654.60721     -658.58238      0             -658.58238      3.9751689    
    312000   314.06143     -655.07348     -659.09245      0             -659.09245      4.018967     
    313000   313.51        -654.41278     -658.42469      0             -658.42469      4.0119104    
    314000   314.09685     -653.65196     -657.67138      0             -657.67138      4.0194202    
    315000   313.65226     -654.66169     -658.67542      0             -658.67542      4.0137309    
    316000   319.29072     -654.41765     -658.50354      0             -658.50354      4.0858849    
    317000   314.54148     -654.59545     -658.62056      0             -658.62056      4.0251101    
    318000   318.24367     -654.96129     -659.03377      0             -659.03377      4.0724861    
    319000   319.76402     -654.51855     -658.61049      0             -658.61049      4.0919416    
    320000   319.08792     -654.42795     -658.51124      0             -658.51124      4.0832897    
    321000   319.961       -654.82778     -658.92224      0             -658.92224      4.0944623    
    322000   320.15308     -653.76656     -657.86348      0             -657.86348      4.0969203    
    323000   325.06751     -654.46292     -658.62273      0             -658.62273      4.1598091    
    324000   323.34526     -654.65274     -658.79051      0             -658.79051      4.1377698    
    325000   324.94972     -654.90513     -659.06343      0             -659.06343      4.1583018    
    326000   328.01842     -654.25519     -658.45277      0             -658.45277      4.1975712    
    327000   326.34089     -654.67979     -658.8559       0             -658.8559       4.1761043    
    328000   327.58241     -654.63208     -658.82407      0             -658.82407      4.1919916    
    329000   328.35446     -653.42227     -657.62414      0             -657.62414      4.2018713    
    330000   329.42121     -654.17049     -658.38601      0             -658.38601      4.2155223    
    331000   328.94147     -654.72479     -658.93418      0             -658.93418      4.2093831    
    332000   329.6443      -654.73224     -658.95062      0             -658.95062      4.2183771    
    333000   331.78592     -654.20121     -658.447        0             -658.447        4.2457829    
    334000   331.86425     -653.89766     -658.14444      0             -658.14444      4.2467852    
    335000   331.28211     -654.56232     -658.80165      0             -658.80165      4.2393358    
    336000   335.05301     -654.86448     -659.15207      0             -659.15207      4.2875911    
    337000   337.06403     -653.70389     -658.01721      0             -658.01721      4.3133256    
    338000   337.40915     -653.68528     -658.00303      0             -658.00303      4.317742     
    339000   338.2448      -653.63248     -657.96091      0             -657.96091      4.3284357    
    340000   342.54525     -654.75994     -659.14341      0             -659.14341      4.3834674    
    341000   340.84445     -654.3138      -658.67551      0             -658.67551      4.3617027    
    342000   340.43528     -654.03395     -658.39042      0             -658.39042      4.3564666    
    343000   342.9359      -654.77251     -659.16098      0             -659.16098      4.3884664    
    344000   344.43141     -654.37201     -658.77962      0             -658.77962      4.4076042    
    345000   345.86485     -653.29222     -657.71816      0             -657.71816      4.4259476    
    346000   346.63094     -653.51426     -657.95001      0             -657.95001      4.435751     
    347000   345.25094     -654.38407     -658.80216      0             -658.80216      4.4180914    
    348000   349.93995     -653.94118     -658.41928      0             -658.41928      4.4780956    
    349000   349.7793      -654.22454     -658.70058      0             -658.70058      4.4760398    
    350000   350.10148     -653.73033     -658.21049      0             -658.21049      4.4801626    
    351000   350.37977     -654.64702     -659.13074      0             -659.13074      4.4837238    
    352000   353.23618     -653.96071     -658.48099      0             -658.48099      4.5202767    
    353000   352.9447      -653.37191     -657.88846      0             -657.88846      4.5165467    
    354000   353.05117     -652.73435     -657.25226      0             -657.25226      4.5179091    
    355000   353.35801     -653.3911      -657.91294      0             -657.91294      4.5218356    
    356000   355.17122     -653.89837     -658.44341      0             -658.44341      4.5450389    
    357000   355.69697     -654.06858     -658.62035      0             -658.62035      4.5517668    
    358000   357.31685     -653.29058     -657.86307      0             -657.86307      4.572496     
    359000   357.5141      -653.26374     -657.83876      0             -657.83876      4.5750201    
    360000   357.51689     -653.87342     -658.44848      0             -658.44848      4.5750558    
    361000   361.21622     -654.39711     -659.0195       0             -659.0195       4.6223953    
    362000   364.24331     -654.17011     -658.83125      0             -658.83125      4.6611321    
    363000   362.94532     -653.58266     -658.22718      0             -658.22718      4.6445222    
    364000   364.01504     -653.29776     -657.95597      0             -657.95597      4.658211     
    365000   364.15167     -653.48657     -658.14653      0             -658.14653      4.6599594    
    366000   367.83602     -653.3126      -658.0197       0             -658.0197       4.7071072    
    367000   368.40773     -654.07298     -658.78741      0             -658.78741      4.7144232    
    368000   368.30382     -652.64999     -657.36309      0             -657.36309      4.7130935    
    369000   368.74055     -652.24843     -656.96711      0             -656.96711      4.7186822    
    370000   371.07872     -653.43509     -658.1837       0             -658.1837       4.7486032    
    371000   371.68746     -653.94606     -658.70245      0             -658.70245      4.7563931    
    372000   371.46583     -653.90351     -658.65707      0             -658.65707      4.753557     
    373000   372.02615     -653.26544     -658.02617      0             -658.02617      4.7607272    
    374000   377.02452     -653.20167     -658.02636      0             -658.02636      4.8246901    
    375000   375.43864     -653.48523     -658.28962      0             -658.28962      4.804396     
    376000   378.2082      -652.71811     -657.55795      0             -657.55795      4.8398374    
    377000   375.89864     -653.07325     -657.88353      0             -657.88353      4.8102826    
    378000   376.38797     -653.23381     -658.05036      0             -658.05036      4.8165444    
    379000   380.7361      -652.85477     -657.72696      0             -657.72696      4.8721863    
    380000   377.97765     -653.47201     -658.3089       0             -658.3089       4.8368872    
    381000   380.44643     -653.22664     -658.09512      0             -658.09512      4.8684795    
    382000   382.62676     -652.76307     -657.65945      0             -657.65945      4.8963807    
    383000   381.43772     -652.49742     -657.37859      0             -657.37859      4.8811648    
    384000   382.86812     -653.30232     -658.20179      0             -658.20179      4.8994693    
    385000   384.50571     -652.57273     -657.49315      0             -657.49315      4.9204251    
    386000   390.25448     -651.78379     -656.77778      0             -656.77778      4.9939907    
    387000   386.9771      -653.19501     -658.14706      0             -658.14706      4.9520509    
    388000   386.55154     -652.49702     -657.44362      0             -657.44362      4.9466051    
    389000   388.43306     -653.24687     -658.21755      0             -658.21755      4.9706824    
    390000   390.62888     -653.40006     -658.39884      0             -658.39884      4.9987819    
    391000   387.96431     -653.00116     -657.96584      0             -657.96584      4.964684     
    392000   391.98504     -652.07324     -657.08938      0             -657.08938      5.0161363    
    393000   390.65304     -653.06526     -658.06435      0             -658.06435      4.999091     
    394000   396.12822     -653.10149     -658.17064      0             -658.17064      5.0691555    
    395000   393.18675     -653.09443     -658.12594      0             -658.12594      5.0315143    
    396000   395.38184     -652.49294     -657.55255      0             -657.55255      5.0596043    
    397000   396.32268     -652.96903     -658.04067      0             -658.04067      5.071644     
    398000   398.33143     -652.76995     -657.8673       0             -657.8673       5.0973495    
    399000   397.91433     -652.23171     -657.32372      0             -657.32372      5.0920119    
    400000   397.81072     -653.08732     -658.178        0             -658.178        5.0906861    
    401000   404.07907     -652.37043     -657.54133      0             -657.54133      5.1709006    
    402000   400.85196     -652.63529     -657.76489      0             -657.76489      5.129604     
    403000   402.95805     -651.37744     -656.534        0             -656.534        5.1565551    
    404000   403.36514     -652.29903     -657.46079      0             -657.46079      5.1617646    
    405000   407.72669     -652.17965     -657.39723      0             -657.39723      5.2175783    
    406000   402.50683     -652.30955     -657.46033      0             -657.46033      5.150781     
    407000   409.24691     -650.61779     -655.85482      0             -655.85482      5.2370321    
    408000   407.32388     -651.9136      -657.12603      0             -657.12603      5.2124237    
    409000   407.69156     -652.73472     -657.95184      0             -657.95184      5.2171288    
    410000   411.30631     -651.81092     -657.0743       0             -657.0743       5.2633858    
    411000   408.09633     -651.90936     -657.13166      0             -657.13166      5.2223085    
    412000   413.45724     -651.69288     -656.98379      0             -656.98379      5.2909108    
    413000   412.64751     -651.26896     -656.54951      0             -656.54951      5.2805488    
    414000   414.64005     -651.66296     -656.96901      0             -656.96901      5.3060469    
    415000   414.92643     -652.87229     -658.18201      0             -658.18201      5.3097116    
    416000   419.17356     -652.96326     -658.32732      0             -658.32732      5.3640611    
    417000   414.48763     -651.92205     -657.22615      0             -657.22615      5.3040964    
    418000   417.87957     -651.71197     -657.05947      0             -657.05947      5.3475022    
    419000   417.82486     -652.28335     -657.63016      0             -657.63016      5.3468022    
    420000   417.67912     -650.5896      -655.93454      0             -655.93454      5.3449371    
    421000   423.01319     -652.30878     -657.72198      0             -657.72198      5.4131959    
    422000   420.74312     -651.76351     -657.14765      0             -657.14765      5.3841464    
    423000   423.03119     -652.00646     -657.41988      0             -657.41988      5.4134263    
    424000   424.58147     -651.22101     -656.65428      0             -656.65428      5.4332648    
    425000   424.10613     -651.84774     -657.27493      0             -657.27493      5.427182     
    426000   425.53965     -652.02251     -657.46804      0             -657.46804      5.4455263    
    427000   424.86598     -652.30722     -657.74413      0             -657.74413      5.4369056    
    428000   423.98399     -650.56124     -655.98686      0             -655.98686      5.4256189    
    429000   430.01513     -650.36059     -655.86339      0             -655.86339      5.502798     
    430000   431.09417     -651.75432     -657.27093      0             -657.27093      5.5166063    
    431000   432.86842     -651.54687     -657.08618      0             -657.08618      5.5393109    
    432000   430.49668     -650.8627      -656.37166      0             -656.37166      5.5089602    
    433000   433.62761     -651.53458     -657.08361      0             -657.08361      5.549026     
    434000   433.33495     -650.9168      -656.46208      0             -656.46208      5.545281     
    435000   435.52778     -651.35995     -656.93329      0             -656.93329      5.573342     
    436000   437.25964     -651.20358     -656.79909      0             -656.79909      5.5955042    
    437000   439.37487     -651.99443     -657.617        0             -657.617        5.6225722    
    438000   436.7178      -651.11136     -656.69993      0             -656.69993      5.5885705    
    439000   439.40545     -651.45515     -657.07811      0             -657.07811      5.6229636    
    440000   439.85634     -650.87868     -656.50741      0             -656.50741      5.6287336    
    441000   439.31172     -650.8951      -656.51686      0             -656.51686      5.6217642    
    442000   441.37724     -651.04964     -656.69784      0             -656.69784      5.6481961    
    443000   444.51181     -651.71619     -657.40449      0             -657.40449      5.6883084    
    444000   442.88921     -651.1923      -656.85984      0             -656.85984      5.6675445    
    445000   444.44667     -651.30395     -656.99142      0             -656.99142      5.6874749    
    446000   448.02183     -650.35748     -656.0907       0             -656.0907       5.7332253    
    447000   443.7591      -651.79081     -657.46949      0             -657.46949      5.6786762    
    448000   446.45259     -652.03649     -657.74964      0             -657.74964      5.7131442    
    449000   448.70308     -651.04634     -656.78829      0             -656.78829      5.7419431    
    450000   451.88345     -651.27551     -657.05815      0             -657.05815      5.7826415    
    451000   450.85202     -651.95994     -657.72938      0             -657.72938      5.7694426    
    452000   453.68838     -651.76693     -657.57267      0             -657.57267      5.8057387    
    453000   454.81742     -651.93211     -657.75229      0             -657.75229      5.8201869    
    454000   453.43911     -651.43921     -657.24176      0             -657.24176      5.8025489    
    455000   454.53353     -652.95818     -658.77473      0             -658.77473      5.8165539    
    456000   456.98201     -652.34279     -658.19067      0             -658.19067      5.8478865    
    457000   455.85856     -652.76069     -658.5942       0             -658.5942       5.83351      
    458000   459.20503     -651.40492     -657.28125      0             -657.28125      5.8763339    
    459000   458.5252      -651.47516     -657.34279      0             -657.34279      5.8676344    
    460000   461.56563     -651.29945     -657.206        0             -657.206        5.906542     
    461000   462.99482     -652.58041     -658.50525      0             -658.50525      5.924831     
    462000   464.98024     -651.04655     -656.99679      0             -656.99679      5.9502379    
    463000   465.25221     -650.64737     -656.60109      0             -656.60109      5.9537183    
    464000   463.77423     -652.24634     -658.18114      0             -658.18114      5.9348049    
    465000   466.01877     -651.87473     -657.83826      0             -657.83826      5.9635277    
    466000   467.41258     -651.51204     -657.49341      0             -657.49341      5.9813639    
    467000   465.37662     -652.51234     -658.46765      0             -658.46765      5.9553103    
    468000   472.40547     -650.27503     -656.32029      0             -656.32029      6.0452567    
    469000   470.88022     -652.5553      -658.58104      0             -658.58104      6.0257385    
    470000   470.64295     -651.97805     -658.00075      0             -658.00075      6.0227022    
    471000   471.65619     -651.86669     -657.90235      0             -657.90235      6.0356684    
    472000   474.36155     -651.74337     -657.81366      0             -657.81366      6.0702882    
    473000   471.55957     -652.07838     -658.11281      0             -658.11281      6.0344319    
    474000   476.54144     -651.87374     -657.97192      0             -657.97192      6.0981838    
    475000   471.54114     -650.97273     -657.00692      0             -657.00692      6.0341962    
    476000   477.24261     -651.46048     -657.56764      0             -657.56764      6.1071565    
    477000   475.56712     -651.98195     -658.06766      0             -658.06766      6.0857157    
    478000   478.05876     -652.07052     -658.18812      0             -658.18812      6.1176006    
    479000   476.77651     -651.58701     -657.68821      0             -657.68821      6.1011919    
    480000   479.12227     -651.51477     -657.64598      0             -657.64598      6.13121      
    481000   482.73373     -651.3539      -657.53133      0             -657.53133      6.1774249    
    482000   479.33662     -651.04304     -657.17699      0             -657.17699      6.133953     
    483000   483.85196     -651.95803     -658.14977      0             -658.14977      6.1917346    
    484000   483.50161     -649.72689     -655.91414      0             -655.91414      6.1872514    
    485000   484.4273      -651.0991      -657.29819      0             -657.29819      6.1990971    
    486000   486.11574     -651.84107     -658.06177      0             -658.06177      6.2207037    
    487000   487.74411     -651.44349     -657.68504      0             -657.68504      6.2415416    
    488000   486.4571      -650.13639     -656.36147      0             -656.36147      6.225072     
    489000   484.78054     -651.34164     -657.54526      0             -657.54526      6.2036175    
    490000   494.70524     -651.58965     -657.92027      0             -657.92027      6.3306214    
    491000   492.26799     -651.31712     -657.61655      0             -657.61655      6.2994325    
    492000   498.16222     -651.28272     -657.65758      0             -657.65758      6.3748595    
    493000   494.3328      -649.32645     -655.6523       0             -655.6523       6.3258554    
    494000   497.73594     -651.40228     -657.77168      0             -657.77168      6.3694045    
    495000   492.79525     -651.57809     -657.88427      0             -657.88427      6.3061797    
    496000   497.14257     -650.73375     -657.09557      0             -657.09557      6.3618113    
    497000   498.98368     -650.53657     -656.92195      0             -656.92195      6.3853716    
    498000   496.73996     -651.87564     -658.2323       0             -658.2323       6.3566592    
    499000   499.69757     -649.42539     -655.8199       0             -655.8199       6.394507     
    500000   499.92324     -650.66865     -657.06604      0             -657.06604      6.3973949    
    501000   497.08853     -652.08472     -658.44584      0             -658.44584      6.3611198    
    502000   505.39528     -650.75666     -657.22408      0             -657.22408      6.4674192    
    503000   503.0445      -650.60011     -657.03745      0             -657.03745      6.4373369    
    504000   502.72817     -651.61225     -658.04554      0             -658.04554      6.4332889    
    505000   501.66338     -650.34557     -656.76524      0             -656.76524      6.4196631    
    506000   506.01885     -649.92529     -656.40069      0             -656.40069      6.4753989    
    507000   511.53959     -651.61226     -658.15831      0             -658.15831      6.5460465    
    508000   508.27546     -650.93576     -657.44003      0             -657.44003      6.5042761    
    509000   510.53143     -651.18216     -657.7153       0             -657.7153       6.5331453    
    510000   509.18459     -651.63303     -658.14894      0             -658.14894      6.5159102    
    511000   509.18519     -651.17963     -657.69555      0             -657.69555      6.5159178    
    512000   510.15775     -653.22699     -659.75535      0             -659.75535      6.5283634    
    513000   515.56173     -653.33159     -659.92911      0             -659.92911      6.5975168    
    514000   512.17568     -652.79984     -659.35403      0             -659.35403      6.5541864    
    515000   513.55216     -652.90645     -659.47825      0             -659.47825      6.5718008    
    516000   516.94363     -654.6159      -661.2311       0             -661.2311       6.6152007    
    517000   516.59478     -654.39032     -661.00106      0             -661.00106      6.6107365    
    518000   517.51122     -652.73392     -659.35638      0             -659.35638      6.6224639    
    519000   516.27321     -652.50754     -659.11417      0             -659.11417      6.6066214    
    520000   521.14606     -652.88404     -659.55302      0             -659.55302      6.6689781    
    521000   519.52547     -654.50444     -661.15268      0             -661.15268      6.6482398    
    522000   520.11481     -652.91837     -659.57415      0             -659.57415      6.6557815    
    523000   523.86988     -654.02929     -660.73313      0             -660.73313      6.7038342    
    524000   526.8989      -653.13685     -659.87945      0             -659.87945      6.7425958    
    525000   520.76702     -655.22898     -661.89311      0             -661.89311      6.6641276    
    526000   525.34184     -652.32929     -659.05197      0             -659.05197      6.7226704    
    527000   524.40138     -652.96715     -659.67778      0             -659.67778      6.7106357    
    528000   529.86202     -654.3169      -661.09741      0             -661.09741      6.7805141    
    529000   526.43512     -653.51108     -660.24774      0             -660.24774      6.7366609    
    530000   531.23875     -652.68175     -659.47988      0             -659.47988      6.7981318    
    531000   531.89628     -653.95306     -660.75961      0             -660.75961      6.806546     
    532000   534.35888     -654.97799     -661.81605      0             -661.81605      6.8380594    
    533000   530.8383      -652.27179     -659.0648       0             -659.0648       6.7930074    
    534000   536.29116     -654.30278     -661.16557      0             -661.16557      6.8627862    
    535000   535.07655     -653.67594     -660.52319      0             -660.52319      6.8472432    
    536000   539.07442     -654.47253     -661.37093      0             -661.37093      6.8984029    
    537000   536.35054     -654.47884     -661.34239      0             -661.34239      6.8635461    
    538000   536.62395     -652.69022     -659.55726      0             -659.55726      6.8670448    
    539000   542.44035     -653.66102     -660.6025       0             -660.6025       6.9414759    
    540000   541.47004     -654.55964     -661.4887       0             -661.4887       6.9290591    
    541000   542.69458     -654.44603     -661.39076      0             -661.39076      6.9447292    
    542000   543.22887     -653.13853     -660.0901       0             -660.0901       6.9515665    
    543000   542.7427      -654.93036     -661.87571      0             -661.87571      6.9453451    
    544000   542.36472     -654.81473     -661.75523      0             -661.75523      6.9405081    
    545000   546.21563     -655.04191     -662.03169      0             -662.03169      6.9897873    
    546000   546.97213     -654.06182     -661.06129      0             -661.06129      6.999468     
    547000   541.45039     -653.1482      -660.07701      0             -660.07701      6.9288076    
    548000   549.70643     -654.18996     -661.22442      0             -661.22442      7.0344582    
    549000   549.40184     -655.6935      -662.72406      0             -662.72406      7.0305604    
    550000   543.92215     -655.18214     -662.14257      0             -662.14257      6.9604381    
    551000   554.30536     -653.52265     -660.61596      0             -660.61596      7.0933095    
    552000   550.89166     -655.92029     -662.96991      0             -662.96991      7.0496252    
    553000   552.71447     -654.34168     -661.41463      0             -661.41463      7.0729513    
    554000   553.87768     -653.63247     -660.72031      0             -660.72031      7.0878366    
    555000   556.24604     -654.46053     -661.57867      0             -661.57867      7.1181439    
    556000   551.27427     -654.61884     -661.67336      0             -661.67336      7.0545215    
    557000   555.19706     -653.23953     -660.34426      0             -660.34426      7.1047204    
    558000   560.20079     -652.8106      -659.97936      0             -659.97936      7.1687518    
    559000   556.00404     -654.45435     -661.5694       0             -661.5694       7.1150471    
    560000   561.9387      -655.2321      -662.42309      0             -662.42309      7.1909915    
    561000   562.89138     -654.07739     -661.28057      0             -661.28057      7.2031828    
    562000   560.18196     -654.49052     -661.65903      0             -661.65903      7.1685109    
    563000   564.78558     -653.86566     -661.09308      0             -661.09308      7.2274223    
    564000   564.17197     -654.18387     -661.40344      0             -661.40344      7.2195702    
    565000   563.18848     -654.70863     -661.91561      0             -661.91561      7.2069847    
    566000   568.37782     -655.06557     -662.33896      0             -662.33896      7.2733913    
    567000   569.90068     -653.89356     -661.18643      0             -661.18643      7.292879     
    568000   567.07065     -653.50832     -660.76499      0             -660.76499      7.2566638    
    569000   567.95966     -654.15742     -661.42546      0             -661.42546      7.2680402    
    570000   571.84399     -652.93435     -660.25209      0             -660.25209      7.317747     
    571000   568.84101     -654.68055     -661.95986      0             -661.95986      7.2793187    
    572000   576.35424     -653.60311     -660.97857      0             -660.97857      7.3754636    
    573000   571.25145     -652.6411      -659.95127      0             -659.95127      7.3101645    
    574000   575.00792     -653.08511     -660.44334      0             -660.44334      7.3582351    
    575000   575.25793     -654.60369     -661.96512      0             -661.96512      7.3614344    
    576000   579.87233     -652.86136     -660.28184      0             -660.28184      7.4204838    
    577000   575.841       -653.45218     -660.82108      0             -660.82108      7.3688959    
    578000   575.46377     -653.21134     -660.57541      0             -660.57541      7.3640686    
    579000   579.30424     -653.24864     -660.66186      0             -660.66186      7.413214     
    580000   582.18045     -654.0706      -661.52062      0             -661.52062      7.4500203    
    581000   579.76057     -653.9912      -661.41025      0             -661.41025      7.4190536    
    582000   579.09061     -653.27106     -660.68154      0             -660.68154      7.4104803    
    583000   584.76181     -653.41056     -660.89361      0             -660.89361      7.4830532    
    584000   583.28057     -654.27716     -661.74126      0             -661.74126      7.4640981    
    585000   583.96914     -654.19151     -661.66442      0             -661.66442      7.4729096    
    586000   582.92241     -651.86073     -659.32025      0             -659.32025      7.4595148    
    587000   588.69551     -653.21772     -660.75111      0             -660.75111      7.5333918    
    588000   588.48956     -653.23356     -660.76432      0             -660.76432      7.5307563    
    589000   588.48723     -653.88351     -661.41424      0             -661.41424      7.5307266    
    590000   594.2074      -651.95034     -659.55427      0             -659.55427      7.6039262    
    591000   590.90281     -652.57019     -660.13183      0             -660.13183      7.5616381    
    592000   595.68513     -653.82865     -661.45149      0             -661.45149      7.6228363    
    593000   593.77835     -653.91804     -661.51647      0             -661.51647      7.5984357    
    594000   593.864       -652.66989     -660.26942      0             -660.26942      7.5995317    
    595000   598.29319     -653.03901     -660.69522      0             -660.69522      7.656211     
    596000   592.96474     -654.23403     -661.82206      0             -661.82206      7.5880241    
    597000   597.33719     -653.33864     -660.98262      0             -660.98262      7.6439772    
    598000   598.73048     -652.00049     -659.6623       0             -659.6623       7.6618069    
    599000   600.8685      -652.90443     -660.5936       0             -660.5936       7.6891666    
    600000   601.59384     -652.4466      -660.14505      0             -660.14505      7.6984486    
    601000   600.2787      -655.22986     -662.91148      0             -662.91148      7.6816191    
    602000   604.62972     -651.60313     -659.34043      0             -659.34043      7.737298     
    603000   605.87915     -652.10768     -659.86097      0             -659.86097      7.7532866    
    604000   606.48104     -653.03984     -660.80083      0             -660.80083      7.7609889    
    605000   606.41163     -653.33784     -661.09794      0             -661.09794      7.7601007    
    606000   608.33775     -654.81276     -662.59751      0             -662.59751      7.7847488    
    607000   609.10851     -651.38948     -659.18409      0             -659.18409      7.794612     
    608000   609.72029     -653.3889      -661.19134      0             -661.19134      7.8024407    
    609000   606.23811     -652.69936     -660.45724      0             -660.45724      7.7578802    
    610000   609.06495     -653.36855     -661.1626       0             -661.1626       7.7940545    
    611000   608.16581     -652.07645     -659.859        0             -659.859        7.7825485    
    612000   614.97119     -652.22223     -660.09187      0             -660.09187      7.8696353    
    613000   613.33036     -651.73621     -659.58485      0             -659.58485      7.8486379    
    614000   613.56881     -653.67837     -661.53006      0             -661.53006      7.8516894    
    615000   616.25306     -652.10276     -659.9888       0             -659.9888       7.886039     
    616000   615.09306     -651.92917     -659.80036      0             -659.80036      7.8711948    
    617000   616.80346     -651.5332      -659.42629      0             -659.42629      7.8930824    
    618000   617.09626     -651.94623     -659.84306      0             -659.84306      7.8968292    
    619000   618.13877     -653.02394     -660.93411      0             -660.93411      7.91017      
    620000   619.76908     -651.60461     -659.53564      0             -659.53564      7.9310326    
    621000   613.45965     -652.86695     -660.71724      0             -660.71724      7.8502924    
    622000   619.11318     -652.47041     -660.39305      0             -660.39305      7.9226393    
    623000   622.1396      -653.30492     -661.26628      0             -661.26628      7.9613676    
    624000   623.18726     -650.39313     -658.3679       0             -658.3679       7.9747743    
    625000   629.23012     -651.73865     -659.79076      0             -659.79076      8.0521033    
    626000   628.15685     -652.5124      -660.55077      0             -660.55077      8.0383688    
    627000   622.74645     -651.40294     -659.37207      0             -659.37207      7.9691334    
    628000   627.99974     -651.41933     -659.45569      0             -659.45569      8.0363584    
    629000   628.96984     -651.89733     -659.9461       0             -659.9461       8.0487725    
    630000   627.79413     -652.19223     -660.22596      0             -660.22596      8.0337272    
    631000   630.54708     -651.41896     -659.48792      0             -659.48792      8.0689561    
    632000   634.54552     -651.21184     -659.33197      0             -659.33197      8.1201231    
    633000   632.43322     -651.17213     -659.26522      0             -659.26522      8.0930925    
    634000   630.78401     -654.03584     -662.10783      0             -662.10783      8.071988     
    635000   633.69256     -652.36748     -660.47669      0             -660.47669      8.109208     
    636000   639.103       -651.06807     -659.24652      0             -659.24652      8.1784442    
    637000   637.21408     -651.47564     -659.62991      0             -659.62991      8.1542721    
    638000   633.70514     -651.89579     -660.00515      0             -660.00515      8.109369     
    639000   637.49144     -651.83906     -659.99688      0             -659.99688      8.1578214    
    640000   641.98225     -651.84154     -660.05683      0             -660.05683      8.2152892    
    641000   639.77213     -653.5457      -661.7327       0             -661.7327       8.1870068    
    642000   641.2836      -651.58261     -659.78896      0             -659.78896      8.2063487    
    643000   645.58629     -651.48895     -659.75036      0             -659.75036      8.2614092    
    644000   643.69307     -651.394       -659.63119      0             -659.63119      8.237182     
    645000   643.61656     -650.79357     -659.02977      0             -659.02977      8.2362031    
    646000   642.67374     -651.89456     -660.1187       0             -660.1187       8.224138     
    647000   643.95056     -652.56123     -660.80171      0             -660.80171      8.2404771    
    648000   646.08553     -650.66116     -658.92896      0             -658.92896      8.2677978    
    649000   646.26405     -651.68702     -659.9571       0             -659.9571       8.2700823    
    650000   651.74371     -652.41435     -660.75456      0             -660.75456      8.3402042    
    651000   646.42413     -650.07488     -658.34701      0             -658.34701      8.2721308    
    652000   654.86152     -652.02946     -660.40956      0             -660.40956      8.3801021    
    653000   650.54676     -650.21402     -658.53891      0             -658.53891      8.3248871    
    654000   655.5873      -650.39896     -658.78835      0             -658.78835      8.3893896    
    655000   652.33171     -652.35047     -660.6982       0             -660.6982       8.3477287    
    656000   655.4482      -650.61117     -658.99878      0             -658.99878      8.3876097    
    657000   655.71098     -653.04032     -661.43129      0             -661.43129      8.3909723    
    658000   656.90768     -650.35005     -658.75633      0             -658.75633      8.4062862    
    659000   661.06223     -650.68006     -659.13951      0             -659.13951      8.4594509    
    660000   658.96592     -652.34892     -660.78155      0             -660.78155      8.432625     
    661000   659.83308     -651.17095     -659.61467      0             -659.61467      8.4437218    
    662000   662.17713     -650.67044     -659.14415      0             -659.14415      8.4737181    
    663000   664.61829     -652.21411     -660.71907      0             -660.71907      8.504957     
    664000   664.28704     -650.91323     -659.41395      0             -659.41395      8.5007181    
    665000   663.17072     -651.49249     -659.97892      0             -659.97892      8.4864328    
    666000   671.82309     -649.74267     -658.33982      0             -658.33982      8.5971551    
    667000   667.04027     -653.01826     -661.55421      0             -661.55421      8.5359505    
    668000   665.44783     -652.12055     -660.63612      0             -660.63612      8.5155724    
    669000   663.97283     -651.16113     -659.65782      0             -659.65782      8.4966972    
    670000   670.39788     -651.29196     -659.87087      0             -659.87087      8.578917     
    671000   674.34735     -650.32228     -658.95173      0             -658.95173      8.6294573    
    672000   673.85289     -649.26216     -657.88529      0             -657.88529      8.6231299    
    673000   673.8373      -651.00748     -659.63041      0             -659.63041      8.6229304    
    674000   671.40271     -650.45697     -659.04874      0             -659.04874      8.5917756    
    675000   672.86027     -651.79037     -660.4008       0             -660.4008       8.6104276    
    676000   676.5117      -651.58541     -660.24256      0             -660.24256      8.657154     
    677000   679.64683     -652.06117     -660.75844      0             -660.75844      8.6972735    
    678000   676.43588     -650.82249     -659.47868      0             -659.47868      8.6561839    
    679000   679.82728     -649.23919     -657.93877      0             -657.93877      8.6995827    
    680000   678.91677     -650.7367      -659.42463      0             -659.42463      8.6879312    
    681000   682.90759     -650.65815     -659.39715      0             -659.39715      8.7390007    
    682000   674.32829     -650.74126     -659.37047      0             -659.37047      8.6292134    
    683000   688.25991     -650.09963     -658.90713      0             -658.90713      8.807493     
    684000   688.35476     -650.54704     -659.35575      0             -659.35575      8.8087067    
    685000   680.84549     -652.35125     -661.06386      0             -661.06386      8.7126124    
    686000   688.22063     -649.0436      -657.85059      0             -657.85059      8.8069903    
    687000   685.00906     -651.6587      -660.42459      0             -660.42459      8.7658926    
    688000   686.4034      -648.86892     -657.65265      0             -657.65265      8.7837357    
    689000   694.00361     -651.91362     -660.79462      0             -660.79462      8.8809937    
    690000   687.40789     -651.52789     -660.32448      0             -660.32448      8.7965899    
    691000   688.97859     -650.67995     -659.49664      0             -659.49664      8.8166898    
    692000   692.29435     -650.54946     -659.40858      0             -659.40858      8.8591208    
    693000   693.90909     -650.60864     -659.48842      0             -659.48842      8.8797841    
    694000   690.90456     -649.95433     -658.79567      0             -658.79567      8.8413359    
    695000   694.30012     -648.90508     -657.78987      0             -657.78987      8.8847881    
    696000   697.16935     -648.80159     -657.7231       0             -657.7231       8.9215049    
    697000   699.42902     -649.13211     -658.08253      0             -658.08253      8.9504213    
    698000   696.37337     -651.35024     -660.26156      0             -660.26156      8.911319     
    699000   698.89694     -650.70429     -659.6479       0             -659.6479       8.9436125    
    700000   699.34241     -650.49535     -659.44466      0             -659.44466      8.949313     
    701000   703.27478     -652.12668     -661.12632      0             -661.12632      8.9996346    
    702000   701.74661     -649.2008      -658.18087      0             -658.18087      8.9800789    
    703000   712.10478     -649.20836     -658.32099      0             -658.32099      9.11263      
    704000   702.38242     -648.78339     -657.77161      0             -657.77161      8.9882153    
    705000   706.11532     -650.65896     -659.69495      0             -659.69495      9.0359842    
    706000   705.31269     -650.7893      -659.81501      0             -659.81501      9.0257132    
    707000   708.41939     -650.12357     -659.18904      0             -659.18904      9.0654689    
    708000   702.34297     -648.75462     -657.74233      0             -657.74233      8.9877105    
    709000   711.64712     -649.06077     -658.16755      0             -658.16755      9.1067734    
    710000   705.2371      -649.13721     -658.16195      0             -658.16195      9.0247459    
    711000   710.09712     -650.01928     -659.10621      0             -659.10621      9.0869384    
    712000   708.80276     -652.36497     -661.43535      0             -661.43535      9.0703748    
    713000   713.73553     -650.00007     -659.13356      0             -659.13356      9.1334982    
    714000   717.05102     -648.62281     -657.79874      0             -657.79874      9.1759258    
    715000   714.24415     -649.7816      -658.92161      0             -658.92161      9.140007     
    716000   717.35867     -649.87444     -659.0543       0             -659.0543       9.1798626    
    717000   713.27256     -649.22793     -658.3555       0             -658.3555       9.1275737    
    718000   719.76298     -650.27953     -659.49016      0             -659.49016      9.2106301    
    719000   717.80701     -648.44358     -657.62918      0             -657.62918      9.1855999    
    720000   718.98631     -650.06482     -659.26552      0             -659.26552      9.2006912    
    721000   721.48458     -648.38851     -657.62117      0             -657.62117      9.232661     
    722000   721.95663     -649.825       -659.0637       0             -659.0637       9.2387017    
    723000   722.80021     -649.95579     -659.20529      0             -659.20529      9.2494967    
    724000   723.08264     -648.59855     -657.85166      0             -657.85166      9.2531109    
    725000   722.50054     -649.23506     -658.48072      0             -658.48072      9.245662     
    726000   722.72288     -650.01386     -659.26236      0             -659.26236      9.2485071    
    727000   726.86156     -650.63833     -659.9398       0             -659.9398       9.3014688    
    728000   728.97267     -652.2459      -661.57438      0             -661.57438      9.3284842    
    729000   733.51628     -651.99362     -661.38024      0             -661.38024      9.3866277    
    730000   727.90757     -650.32974     -659.6446       0             -659.6446       9.3148543    
    731000   733.31448     -651.48101     -660.86505      0             -660.86505      9.3840452    
    732000   732.01906     -650.25105     -659.61852      0             -659.61852      9.3674681    
    733000   738.64752     -652.38884     -661.84113      0             -661.84113      9.4522909    
    734000   734.18163     -651.06869     -660.46383      0             -660.46383      9.3951419    
    735000   734.40051     -650.88192     -660.27986      0             -660.27986      9.3979429    
    736000   734.17591     -652.76531     -662.16038      0             -662.16038      9.3950688    
    737000   734.80153     -649.97752     -659.38059      0             -659.38059      9.4030747    
    738000   737.98816     -649.69544     -659.1393       0             -659.1393       9.4438532    
    739000   740.28388     -650.21781     -659.69104      0             -659.69104      9.4732309    
    740000   736.74099     -651.45923     -660.88712      0             -660.88712      9.4278935    
    741000   743.34276     -648.44396     -657.95633      0             -657.95633      9.5123746    
    742000   743.10816     -652.60878     -662.11815      0             -662.11815      9.5093725    
    743000   741.32443     -650.84654     -660.33309      0             -660.33309      9.4865466    
    744000   741.73342     -651.12546     -660.61724      0             -660.61724      9.4917804    
    745000   748.57785     -650.07335     -659.65271      0             -659.65271      9.5793669    
    746000   742.61447     -651.39082     -660.89387      0             -660.89387      9.5030549    
    747000   740.58377     -650.57953     -660.0566       0             -660.0566       9.4770686    
    748000   747.55439     -650.04374     -659.61001      0             -659.61001      9.5662699    
    749000   753.06855     -650.53204     -660.16887      0             -660.16887      9.6368333    
    750000   747.95679     -650.19541     -659.76683      0             -659.76683      9.5714193    
[...]
   9918000   182.26999     -770.67046     -773.00292      0             -773.00292      2.3324642    
   9919000   180.81784     -770.40209     -772.71597      0             -772.71597      2.3138815    
   9920000   180.1985      -770.76203     -773.06799      0             -773.06799      2.3059559    
   9921000   180.20505     -770.71706     -773.0231       0             -773.0231       2.3060398    
   9922000   178.24633     -770.86477     -773.14574      0             -773.14574      2.2809745    
   9923000   178.31111     -770.739       -773.0208       0             -773.0208       2.2818035    
   9924000   175.96597     -770.55086     -772.80266      0             -772.80266      2.2517933    
   9925000   175.24413     -770.6659      -772.90846      0             -772.90846      2.2425561    
   9926000   174.68202     -770.99621     -773.23157      0             -773.23157      2.2353629    
   9927000   173.51861     -770.60154     -772.82202      0             -772.82202      2.220475     
   9928000   170.72601     -770.63303     -772.81777      0             -772.81777      2.1847388    
   9929000   171.42463     -770.98388     -773.17756      0             -773.17756      2.1936788    
   9930000   169.98544     -770.89933     -773.07459      0             -773.07459      2.175262     
   9931000   169.50474     -770.77302     -772.94213      0             -772.94213      2.1691106    
   9932000   167.73994     -770.92023     -773.06675      0             -773.06675      2.1465268    
   9933000   166.82885     -771.14372     -773.27858      0             -773.27858      2.1348679    
   9934000   166.24767     -770.88136     -773.00879      0             -773.00879      2.1274306    
   9935000   165.03514     -770.90537     -773.01729      0             -773.01729      2.1119142    
   9936000   163.081       -770.83223     -772.91914      0             -772.91914      2.0869075    
   9937000   162.90702     -771.05013     -773.13481      0             -773.13481      2.0846811    
   9938000   162.17826     -771.28472     -773.36008      0             -773.36008      2.0753553    
   9939000   160.00599     -771.07082     -773.11837      0             -773.11837      2.0475573    
   9940000   159.15335     -771.62702     -773.66367      0             -773.66367      2.0366463    
   9941000   159.24324     -771.13467     -773.17247      0             -773.17247      2.0377966    
   9942000   157.0689      -771.17317     -773.18315      0             -773.18315      2.0099722    
   9943000   156.68461     -771.45545     -773.4605       0             -773.4605       2.0050544    
   9944000   155.71602     -771.44626     -773.43892      0             -773.43892      1.9926597    
   9945000   155.8732      -771.25179     -773.24646      0             -773.24646      1.994671     
   9946000   153.51139     -771.20541     -773.16985      0             -773.16985      1.9644475    
   9947000   152.12543     -771.67057     -773.61728      0             -773.61728      1.9467117    
   9948000   152.55808     -771.39979     -773.35204      0             -773.35204      1.9522483    
   9949000   151.65952     -771.32676     -773.26751      0             -773.26751      1.9407496    
   9950000   149.26156     -771.46061     -773.37067      0             -773.37067      1.9100635    
   9951000   150.38124     -771.41698     -773.34137      0             -773.34137      1.9243918    
   9952000   147.23285     -771.2318      -773.1159       0             -773.1159       1.8841026    
   9953000   147.4046      -771.69884     -773.58514      0             -773.58514      1.8863005    
   9954000   145.88065     -771.39898     -773.26578      0             -773.26578      1.8667988    
   9955000   144.69567     -771.55729     -773.40892      0             -773.40892      1.851635     
   9956000   143.71156     -771.78125     -773.62029      0             -773.62029      1.8390415    
   9957000   142.25715     -771.67167     -773.4921       0             -773.4921       1.8204298    
   9958000   142.52196     -771.52852     -773.35234      0             -773.35234      1.8238185    
   9959000   141.93953     -771.8495      -773.66587      0             -773.66587      1.8163652    
   9960000   140.28984     -771.69558     -773.49083      0             -773.49083      1.7952546    
   9961000   138.9438      -771.4732      -773.25123      0             -773.25123      1.7780297    
   9962000   136.89716     -771.64597     -773.3978       0             -773.3978       1.7518393    
   9963000   137.18225     -772.10896     -773.86445      0             -773.86445      1.7554876    
   9964000   135.89706     -771.52139     -773.26043      0             -773.26043      1.7390414    
   9965000   135.97686     -772.03964     -773.7797       0             -773.7797       1.7400624    
   9966000   134.27857     -771.71214     -773.43047      0             -773.43047      1.7183299    
   9967000   132.56786     -772.00603     -773.70247      0             -773.70247      1.6964383    
   9968000   131.91988     -771.75581     -773.44395      0             -773.44395      1.6881463    
   9969000   131.19728     -771.92044     -773.59934      0             -773.59934      1.6788994    
   9970000   130.47588     -772.12237     -773.79204      0             -773.79204      1.6696678    
   9971000   128.49766     -771.88248     -773.52684      0             -773.52684      1.644353     
   9972000   127.61653     -772.13608     -773.76916      0             -773.76916      1.6330773    
   9973000   126.21984     -772.08594     -773.70115      0             -773.70115      1.6152043    
   9974000   126.47183     -772.12254     -773.74097      0             -773.74097      1.6184289    
   9975000   125.56348     -772.07611     -773.68292      0             -773.68292      1.6068051    
   9976000   123.65454     -772.20181     -773.78418      0             -773.78418      1.5823768    
   9977000   123.39748     -772.14365     -773.72274      0             -773.72274      1.5790873    
   9978000   122.29734     -772.2637      -773.82871      0             -773.82871      1.565009     
   9979000   121.74694     -772.18963     -773.7476       0             -773.7476       1.5579657    
   9980000   119.71456     -772.17343     -773.70538      0             -773.70538      1.5319579    
   9981000   118.6696      -772.32745     -773.84604      0             -773.84604      1.5185857    
   9982000   118.16814     -772.34504     -773.85721      0             -773.85721      1.5121687    
   9983000   117.33769     -772.24412     -773.74566      0             -773.74566      1.5015416    
   9984000   115.45183     -772.36764     -773.84504      0             -773.84504      1.4774087    
   9985000   114.73832     -772.35118     -773.81946      0             -773.81946      1.4682781    
   9986000   113.34813     -772.4054      -773.85589      0             -773.85589      1.4504881    
   9987000   113.11943     -772.47781     -773.92538      0             -773.92538      1.4475616    
   9988000   112.27418     -772.37729     -773.81403      0             -773.81403      1.4367451    
   9989000   111.22505     -772.27874     -773.70206      0             -773.70206      1.4233197    
   9990000   109.2863      -772.55391     -773.95242      0             -773.95242      1.39851      
   9991000   109.45189     -772.60923     -774.00986      0             -774.00986      1.4006289    
   9992000   108.6645      -772.4981      -773.88865      0             -773.88865      1.3905529    
   9993000   107.40866     -772.56215     -773.93663      0             -773.93663      1.3744822    
   9994000   106.12838     -772.80156     -774.15966      0             -774.15966      1.3580988    
   9995000   104.7096      -772.67287     -774.01282      0             -774.01282      1.3399431    
   9996000   103.86284     -772.80071     -774.12982      0             -774.12982      1.3291072    
   9997000   103.61769     -772.70269     -774.02866      0             -774.02866      1.3259702    
   9998000   101.73688     -772.55878     -773.86068      0             -773.86068      1.3019019    
   9999000   100.2042      -772.80325     -774.08554      0             -774.08554      1.2822886    
  10000000   100.12579     -772.86659     -774.14788      0             -774.14788      1.2812851    
  10001000   99.063386     -772.91124     -774.17893      0             -774.17893      1.2676898    
  10002000   97.39499      -772.87848     -774.12482      0             -774.12482      1.2463398    
  10003000   96.753796     -772.82134     -774.05947      0             -774.05947      1.2381346    
  10004000   96.359442     -772.97722     -774.2103       0             -774.2103       1.2330881    
  10005000   94.878293     -772.76322     -773.97735      0             -773.97735      1.2141342    
  10006000   94.347176     -773.00774     -774.21508      0             -774.21508      1.2073376    
  10007000   93.036153     -773.00605     -774.19661      0             -774.19661      1.1905608    
  10008000   91.925613     -773.01447     -774.19082      0             -774.19082      1.1763495    
  10009000   90.752396     -772.89919     -774.06053      0             -774.06053      1.1613361    
  10010000   89.974525     -773.17738     -774.32876      0             -774.32876      1.1513819    
  10011000   88.734088     -773.05141     -774.18692      0             -774.18692      1.1355083    
  10012000   88.430882     -773.1718      -774.30343      0             -774.30343      1.1316283    
  10013000   86.651746     -773.09305     -774.20191      0             -774.20191      1.1088611    
  10014000   86.089186     -773.08983     -774.19149      0             -774.19149      1.1016622    
  10015000   85.065428     -773.23724     -774.3258       0             -774.3258       1.0885614    
  10016000   84.195834     -773.28694     -774.36437      0             -774.36437      1.0774334    
  10017000   82.845181     -773.2421      -774.30225      0             -774.30225      1.0601494    
  10018000   81.709566     -773.10209     -774.1477       0             -774.1477       1.0456172    
  10019000   80.879253     -773.33699     -774.37198      0             -774.37198      1.0349919    
  10020000   79.692195     -773.15512     -774.17492      0             -774.17492      1.0198014    
  10021000   79.143336     -773.33904     -774.35182      0             -774.35182      1.0127778    
  10022000   77.452507     -773.25991     -774.25105      0             -774.25105      0.99114071   
  10023000   76.872824     -773.31717     -774.30089      0             -774.30089      0.98372264   
  10024000   76.035737     -773.50584     -774.47885      0             -774.47885      0.97301065   
  10025000   75.128079     -773.37499     -774.33639      0             -774.33639      0.96139557   
  10026000   74.5882       -773.2907      -774.24519      0             -774.24519      0.95448687   
  10027000   72.829184     -773.53174     -774.46371      0             -774.46371      0.93197718   
  10028000   71.791066     -773.52639     -774.44508      0             -774.44508      0.91869264   
  10029000   71.219335     -773.50591     -774.41729      0             -774.41729      0.91137633   
  10030000   70.10436      -773.46802     -774.36513      0             -774.36513      0.89710828   
  10031000   69.088585     -773.56421     -774.44832      0             -774.44832      0.88410965   
  10032000   68.517264     -773.52886     -774.40565      0             -774.40565      0.87679859   
  10033000   67.085127     -773.71668     -774.57515      0             -774.57515      0.85847189   
  10034000   65.930357     -773.65293     -774.49663      0             -774.49663      0.84369459   
  10035000   65.502018     -773.57764     -774.41585      0             -774.41585      0.83821323   
  10036000   63.856447     -773.81905     -774.6362       0             -774.6362       0.81715526   
  10037000   63.116833     -773.66805     -774.47574      0             -774.47574      0.8076906    
  10038000   62.288594     -773.74705     -774.54414      0             -774.54414      0.79709183   
  10039000   60.629624     -773.70075     -774.47661      0             -774.47661      0.77586241   
  10040000   60.034391     -773.82092     -774.58917      0             -774.58917      0.76824535   
  10041000   58.96797      -773.95179     -774.70639      0             -774.70639      0.75459863   
  10042000   57.653164     -773.87321     -774.61098      0             -774.61098      0.73777337   
  10043000   56.859707     -773.76286     -774.49048      0             -774.49048      0.7276197    
  10044000   55.994818     -773.95853     -774.67508      0             -774.67508      0.71655194   
  10045000   55.140912     -773.94842     -774.65404      0             -774.65404      0.7056247    
  10046000   53.708756     -773.96549     -774.65279      0             -774.65279      0.68729776   
  10047000   53.536248     -774.07426     -774.75936      0             -774.75936      0.68509021   
  10048000   51.637977     -774.01602     -774.67682      0             -774.67682      0.66079851   
  10049000   51.167443     -774.06657     -774.72135      0             -774.72135      0.6547772    
  10050000   49.985915     -774.10681     -774.74646      0             -774.74646      0.63965748   
  10051000   49.298763     -774.07339     -774.70425      0             -774.70425      0.63086416   
  10052000   47.887509     -774.19035     -774.80316      0             -774.80316      0.61280469   
  10053000   46.959054     -774.16846     -774.76938      0             -774.76938      0.60092348   
  10054000   45.914127     -774.18713     -774.77468      0             -774.77468      0.5875518    
  10055000   44.963704     -774.2266      -774.80199      0             -774.80199      0.57538947   
  10056000   43.75947      -774.08191     -774.64189      0             -774.64189      0.55997919   
  10057000   42.977777     -774.32648     -774.87646      0             -774.87646      0.54997605   
  10058000   41.945273     -774.36584     -774.9026       0             -774.9026       0.53676336   
  10059000   41.011211     -774.22599     -774.7508       0             -774.7508       0.5248104    
  10060000   39.981829     -774.33042     -774.84206      0             -774.84206      0.51163764   
  10061000   39.027391     -774.34788     -774.84731      0             -774.84731      0.49942393   
  10062000   38.000397     -774.36323     -774.84951      0             -774.84951      0.48628175   
  10063000   37.217249     -774.33632     -774.81258      0             -774.81258      0.47625999   
  10064000   35.927769     -774.42263     -774.88239      0             -774.88239      0.45975884   
  10065000   35.280465     -774.40541     -774.85689      0             -774.85689      0.45147545   
  10066000   34.060291     -774.55719     -774.99305      0             -774.99305      0.43586117   
  10067000   33.023625     -774.4845      -774.9071       0             -774.9071       0.42259522   
  10068000   32.138721     -774.6147      -775.02597      0             -775.02597      0.41127131   
  10069000   31.089911     -774.53504     -774.93289      0             -774.93289      0.39784995   
  10070000   29.973838     -774.55057     -774.93414      0             -774.93414      0.38356784   
  10071000   28.928837     -774.62483     -774.99502      0             -774.99502      0.37019522   
  10072000   27.952082     -774.65482     -775.01252      0             -775.01252      0.35769592   
  10073000   26.886858     -774.57747     -774.92154      0             -774.92154      0.34406452   
  10074000   26.08415      -774.6906      -775.0244       0             -775.0244       0.33379245   
  10075000   24.871832     -774.77144     -775.08972      0             -775.08972      0.31827872   
  10076000   24.033918     -774.73233     -775.03989      0             -775.03989      0.30755614   
  10077000   23.052991     -774.77007     -775.06507      0             -775.06507      0.29500346   
  10078000   22.023949     -774.80255     -775.08438      0             -775.08438      0.28183507   
  10079000   21.029102     -774.83072     -775.09982      0             -775.09982      0.26910425   
  10080000   19.873623     -774.82182     -775.07613      0             -775.07613      0.25431787   
  10081000   19.001082     -774.90031     -775.14346      0             -775.14346      0.24315218   
  10082000   17.971695     -774.8629      -775.09288      0             -775.09288      0.22997937   
  10083000   17.041426     -774.94109     -775.15917      0             -775.15917      0.21807494   
  10084000   15.857253     -774.93701     -775.13993      0             -775.13993      0.20292138   
  10085000   14.995673     -774.99653     -775.18843      0             -775.18843      0.19189594   
  10086000   14.045703     -774.98734     -775.16708      0             -775.16708      0.1797394    
  10087000   13.040638     -775.03936     -775.20624      0             -775.20624      0.16687784   
  10088000   11.990332     -775.05903     -775.21247      0             -775.21247      0.15343734   
  10089000   11.135672     -775.08185     -775.22435      0             -775.22435      0.14250046   
  10090000   9.9788106     -775.10617     -775.23386      0             -775.23386      0.12769639   
  10091000   9.0702117     -775.12401     -775.24008      0             -775.24008      0.11606927   
  10092000   7.9355372     -775.15575     -775.2573       0             -775.2573       0.10154912   
  10093000   6.989569      -775.17242     -775.26187      0             -775.26187      0.089443798  
  10094000   5.9646311     -775.21891     -775.29523      0             -775.29523      0.076327919  
  10095000   5.0079904     -775.23468     -775.29877      0             -775.29877      0.064086023  
  10096000   4.0232217     -775.26192     -775.3134       0             -775.3134       0.05148418   
  10097000   2.9938705     -775.28509     -775.3234       0             -775.3234       0.038311825  
  10098000   2.0224092     -775.31071     -775.33659      0             -775.33659      0.025880273  
  10099000   1.0164281     -775.3362      -775.34921      0             -775.34921      0.01300698   
  10100000   0.01229435    -775.36089     -775.36105      0             -775.36105      0.00015732777
Loop time of 1986.35 on 1 procs for 5000000 steps with 100 atoms

Performance: 21.748 ns/day, 1.104 hours/ns, 2517.185 timesteps/s, 251.719 katom-step/s
97.6% CPU use with 1 MPI tasks x 1 OpenMP threads

MPI task timing breakdown:
Section |  min time  |  avg time  |  max time  |%varavg| %total
---------------------------------------------------------------
Pair    | 1850.5     | 1850.5     | 1850.5     |   0.0 | 93.16
Neigh   | 3.9208     | 3.9208     | 3.9208     |   0.0 |  0.20
Comm    | 3.4525     | 3.4525     | 3.4525     |   0.0 |  0.17
Output  | 50.451     | 50.451     | 50.451     |   0.0 |  2.54
Modify  | 69.304     | 69.304     | 69.304     |   0.0 |  3.49
Other   |            | 8.675      |            |       |  0.44

Nlocal:            100 ave         100 max         100 min
Histogram: 1 0 0 0 0 0 0 0 0 0
Nghost:              0 ave           0 max           0 min
Histogram: 1 0 0 0 0 0 0 0 0 0
Neighs:           1560 ave        1560 max        1560 min
Histogram: 1 0 0 0 0 0 0 0 0 0

Total # of neighbors = 1560
Ave neighs/atom = 15.6
Neighbor list builds = 36703
Dangerous builds = 0
write_restart ./endconf/${N}/endconf*3.restart
write_restart ./endconf/100/endconf*3.restart
System init for write_restart ...



Total wall time: 0:56:38
