LAMMPS (29 Sep 2021 - Update 2)
OMP_NUM_THREADS environment is not set. Defaulting to 1 thread. (src/comm.cpp:98)
  using 1 OpenMP thread(s) per MPI task
# LAMMPS input script to load a restart file and perform minimization

#============Initialization=================
units 			metal
boundary 		p p p
atom_style 		charge


# Read the restart file directly
read_data 	./endconf/bcc/endconf100001.data
Reading data file ...
  orthogonal box = (-50.000000 -50.000000 -50.000000) to (50.000000 50.000000 50.000000)
  1 by 1 by 1 MPI processor grid
  reading atoms ...
  54 atoms
  reading velocities ...
  54 velocities
  read_data CPU = 0.032 seconds

#======Pair style for atom interactions=====
pair_style eam/fs
pair_coeff * * ./w.eam2.fs W


############################################
#              CLI Variables               #
############################################
variable 		seed index 200093          #
variable 		N index 2000               #
variable 		iter index 1000000         # 1.0e6 => 1.0e-7 s
variable 		iterther index 100000      # 1.0e5
variable 		iexport index 100000       # 1.0e5
variable 		tempchauf index 3000       #
variable 		Tdamp index 0.1            #
variable 		timestep index 0.0001	   #
variable 		box_size index 30		   #
############################################
############################################



# ---------- Run MD Heating ---------------------

fix              2 all nve
fix              3 all temp/berendsen  0.0 ${tempchauf} ${Tdamp}
fix              3 all temp/berendsen  0.0 3000 ${Tdamp}
fix              3 all temp/berendsen  0.0 3000 0.1
fix              4 all momentum 1 linear 1 1 1 angular rescale


timestep	${timestep}
timestep	0.0001


thermo 1000
thermo_style custom step  temp etotal epair ebond pe ke

dump 			1 all cfg ${iexport} ./dump/bcc_chauf_real/dump.tensile_*.cfg mass type xs ys zs vx vy vz mass q id
dump 			1 all cfg 100000 ./dump/bcc_chauf_real/dump.tensile_*.cfg mass type xs ys zs vx vy vz mass q id
dump			2 all atom ${iexport} ./tmp/bcc_chauf_real/tmp.dump
dump			2 all atom 100000 ./tmp/bcc_chauf_real/tmp.dump
dump_modify     1 element W

run				${iter}
run				1000000
Neighbor list info ...
  update every 1 steps, delay 10 steps, check yes
  max neighbors/atom: 2000, page size: 100000
  master list distance cutoff = 7.5
  ghost atom cutoff = 7.5
  binsize = 3.75, bins = 27 27 27
  1 neighbor lists, perpetual/occasional/extra = 1 0 0
  (1) pair eam/fs, perpetual
      attributes: half, newton on
      pair build: half/bin/atomonly/newton
      stencil: half/bin/3d
      bin: standard
Per MPI rank memory allocation (min/avg/max) = 5.813 | 5.813 | 5.813 Mbytes
Step Temp TotEng E_pair E_bond PotEng KinEng 
       0        0.001   -314.68833   -314.68834            0   -314.68834 6.8507877e-06 
    1000    4837.0896   -338.85332    -371.9912            0    -371.9912    33.137874 
    2000    2571.8542   -362.15804   -379.77727            0   -379.77727    17.619227 
    3000     1326.281   -372.84084   -381.92691            0   -381.92691    9.0860697 
    4000    1059.3506   -382.28097   -389.53836            0   -389.53836    7.2573857 
    5000     829.4484   -386.99806   -392.68043            0   -392.68043    5.6823749 
    6000    297.17942    -390.3794   -392.41532            0   -392.41532    2.0359131 
    7000    380.93681   -392.46178    -395.0715            0    -395.0715    2.6097172 
    8000    209.76718   -393.71645   -395.15352            0   -395.15352    1.4370704 
    9000    147.35019   -394.45024   -395.45971            0   -395.45971    1.0094649 
   10000    73.404337   -394.98159   -395.48447            0   -395.48447   0.50287753 
   11000     70.23219   -395.23068   -395.71183            0   -395.71183   0.48114582 
   12000    40.404248    -395.3655    -395.6423            0    -395.6423   0.27680092 
   13000    50.667612   -395.47623   -395.82334            0   -395.82334   0.34711305 
   14000    45.678386   -395.52459   -395.83753            0   -395.83753   0.31293293 
   15000    46.819438   -395.51523   -395.83598            0   -395.83598   0.32075003 
   16000    59.811558    -395.5103   -395.92006            0   -395.92006   0.40975629 
   17000     59.41512    -395.4833   -395.89034            0   -395.89034   0.40704037 
   18000    48.908571   -395.44868   -395.78374            0   -395.78374   0.33506224 
   19000    58.035817   -395.40642   -395.80401            0   -395.80401   0.39759106 
   20000    31.879134   -395.36126   -395.57966            0   -395.57966   0.21839718 
   21000      53.9929   -395.35653   -395.72642            0   -395.72642   0.36989389 
   22000    39.132145   -395.26411   -395.53219            0   -395.53219   0.26808601 
   23000    47.813212   -395.25684    -395.5844            0    -395.5844   0.32755816 
   24000    27.737043   -395.19833   -395.38835            0   -395.38835   0.19002059 
   25000    60.098522   -395.15964   -395.57136            0   -395.57136   0.41172222 
   26000    50.376752    -395.1049   -395.45002            0   -395.45002   0.34512043 
   27000    41.075628   -395.08493   -395.36633            0   -395.36633   0.28140041 
   28000     59.98093   -395.03717   -395.44808            0   -395.44808   0.41091661 
   29000    56.413736    -394.9998   -395.38628            0   -395.38628   0.38647853 
   30000    90.170234   -394.94931   -395.56705            0   -395.56705   0.61773713 
   31000    81.021309   -394.88984    -395.4449            0    -395.4449   0.55505979 
   32000    72.737785   -394.88005   -395.37836            0   -395.37836   0.49831112 
   33000    97.435869   -394.85915   -395.52666            0   -395.52666   0.66751245 
   34000    69.422021   -394.76103   -395.23662            0   -395.23662   0.47559552 
   35000    131.82578   -394.70305   -395.60616            0   -395.60616   0.90311045 
   36000     95.99464   -394.72704   -395.38467            0   -395.38467    0.6576389 
   37000    121.86741   -394.65586   -395.49074            0   -395.49074   0.83488773 
   38000    71.089981   -394.59451   -395.08153            0   -395.08153   0.48702237 
   39000    122.93508   -394.56335   -395.40555            0   -395.40555   0.84220211 
   40000    112.59873   -394.52838   -395.29977            0   -395.29977   0.77138997 
   41000    134.42044   -394.42448   -395.34537            0   -395.34537   0.92088587 
   42000    157.83032   -394.39532   -395.47658            0   -395.47658     1.081262 
   43000    121.46784   -394.37594   -395.20809            0   -395.20809   0.83215038 
   44000    139.83254    -394.3671   -395.32507            0   -395.32507   0.95796301 
   45000    124.88028   -394.21804   -395.07357            0   -395.07357    0.8555283 
   46000    123.27132   -394.23025   -395.07475            0   -395.07475   0.84450562 
   47000    143.61602   -394.20853   -395.19242            0   -395.19242   0.98388285 
   48000    121.89685   -394.16862   -395.00371            0   -395.00371   0.83508947 
   49000    142.15928   -394.09663   -395.07053            0   -395.07053   0.97390305 
   50000    120.49949   -394.11999    -394.9455            0    -394.9455   0.82551641 
   51000    123.82834     -394.084   -394.93232            0   -394.93232   0.84832167 
   52000    141.88955   -393.97146   -394.94351            0   -394.94351   0.97205517 
   53000    126.17252   -394.02785   -394.89223            0   -394.89223   0.86438118 
   54000    163.66636   -393.94211   -395.06336            0   -395.06336    1.1212435 
   55000    132.83222   -393.89407   -394.80408            0   -394.80408   0.91000532 
   56000    146.46943   -393.82141   -394.82484            0   -394.82484     1.003431 
   57000    164.45772   -393.85683    -394.9835            0    -394.9835    1.1266649 
   58000    131.08482   -393.69676   -394.59479            0   -394.59479   0.89803424 
   59000     153.5192   -393.69855   -394.75028            0   -394.75028    1.0517275 
   60000    178.90945   -393.70817   -394.93384            0   -394.93384    1.2256706 
   61000    179.13707   -393.59417    -394.8214            0    -394.8214      1.22723 
   62000    198.30659   -393.55887   -394.91743            0   -394.91743    1.3585564 
   63000    168.96435   -393.52925   -394.68679            0   -394.68679    1.1575389 
   64000    194.68244   -393.48362   -394.81734            0   -394.81734    1.3337281 
   65000     167.3933   -393.42569   -394.57247            0   -394.57247    1.1467759 
   66000    202.04604   -393.41772    -394.8019            0    -394.8019    1.3841745 
   67000    197.84073   -393.38773    -394.7431            0    -394.7431    1.3553648 
   68000    214.57864     -393.285   -394.75503            0   -394.75503    1.4700327 
   69000    236.76602   -393.26994   -394.89197            0   -394.89197    1.6220337 
   70000    195.36662   -393.24239    -394.5808            0    -394.5808    1.3384152 
   71000    179.12317   -393.18142   -394.40855            0   -394.40855    1.2271348 
   72000    177.18641   -393.17202   -394.38589            0   -394.38589    1.2138665 
   73000    188.72928   -393.11207   -394.40501            0   -394.40501    1.2929442 
   74000    203.10633   -393.04881   -394.44025            0   -394.44025    1.3914383 
   75000     230.6545   -393.00535   -394.58552            0   -394.58552     1.580165 
   76000    228.39083   -393.00594   -394.57059            0   -394.57059    1.5646571 
   77000    245.65948   -392.87253   -394.55549            0   -394.55549    1.6829609 
   78000    210.67943   -392.92274   -394.36606            0   -394.36606    1.4433201 
   79000    261.23217   -392.87457   -394.66422            0   -394.66422    1.7896461 
   80000    231.36289   -392.81424   -394.39926            0   -394.39926    1.5850181 
   81000    244.95707    -392.8001   -394.47825            0   -394.47825    1.6781488 
   82000    232.21123   -392.70717     -394.298            0     -394.298    1.5908298 
   83000    259.62533   -392.73977   -394.51841            0   -394.51841     1.778638 
   84000    247.03877   -392.63854   -394.33095            0   -394.33095    1.6924102 
   85000    222.28211   -392.63661   -394.15942            0   -394.15942    1.5228075 
   86000    275.32751   -392.51801   -394.40422            0   -394.40422    1.8862103 
   87000    266.52089   -392.54896   -394.37484            0   -394.37484     1.825878 
   88000    282.75585   -392.42781   -394.36491            0   -394.36491    1.9371003 
   89000    279.29354   -392.44311   -394.35649            0   -394.35649    1.9133808 
   90000    254.67643   -392.36474   -394.10947            0   -394.10947    1.7447341 
   91000    291.90438   -392.37868   -394.37845            0   -394.37845    1.9997749 
   92000    233.82776   -392.33633   -393.93824            0   -393.93824    1.6019043 
   93000    259.00746   -392.31913   -394.09354            0   -394.09354    1.7744051 
   94000    297.33582   -392.23035   -394.26734            0   -394.26734    2.0369846 
   95000    254.84731    -392.3102    -394.0561            0    -394.0561    1.7459048 
   96000     259.7437   -392.05472   -393.83416            0   -393.83416    1.7794489 
   97000    277.45625     -392.133    -394.0338            0    -394.0338    1.9007939 
   98000    294.15478   -392.02667   -394.04186            0   -394.04186    2.0151919 
   99000    303.58152   -391.99565   -394.07542            0   -394.07542    2.0797725 
  100000    328.24337   -391.99824   -394.24697            0   -394.24697    2.2487256 
  101000    280.80457   -391.97825   -393.90198            0   -393.90198    1.9237325 
  102000    320.96304   -391.80363   -394.00248            0   -394.00248    2.1988496 
  103000    331.85188   -391.86235    -394.1358            0    -394.1358    2.2734468 
  104000     327.9435   -391.68663    -393.9333            0    -393.9333    2.2466713 
  105000    350.34237   -391.85123   -394.25135            0   -394.25135    2.4001212 
  106000    307.81285   -391.83241   -393.94117            0   -393.94117    2.1087605 
  107000    295.02713   -391.79467   -393.81584            0   -393.81584    2.0211682 
  108000    316.09009   -391.61981   -393.78527            0   -393.78527    2.1654661 
  109000    377.17882   -391.83973    -394.4237            0    -394.4237     2.583972 
  110000    360.60595   -392.18647   -394.65691            0   -394.65691    2.4704348 
  111000    352.13503   -392.31457   -394.72697            0   -394.72697    2.4124023 
  112000    369.76818   -392.36634   -394.89954            0   -394.89954    2.5332033 
  113000    278.60456   -392.24403   -394.15269            0   -394.15269    1.9086607 
  114000    307.07633   -392.07334   -394.17705            0   -394.17705    2.1037147 
  115000    403.58234   -392.19654   -394.96139            0   -394.96139    2.7648569 
  116000    347.51844   -392.25826   -394.63903            0   -394.63903     2.380775 
  117000    364.52827   -392.12923   -394.62654            0   -394.62654    2.4973058 
  118000    326.15883   -392.07634   -394.31079            0   -394.31079    2.2344449 
  119000    367.39253   -392.21348   -394.73041            0   -394.73041    2.5169282 
  120000    329.72227    -392.1013   -394.36016            0   -394.36016    2.2588573 
  121000     355.2764   -392.08129   -394.51521            0   -394.51521    2.4339232 
  122000    348.54629   -391.98503   -394.37284            0   -394.37284    2.3878166 
  123000    398.83174   -391.82573   -394.55804            0   -394.55804    2.7323116 
  124000    431.39682   -392.08616   -395.04157            0   -395.04157     2.955408 
  125000    365.82224   -392.36734   -394.87351            0   -394.87351    2.5061705 
  126000    386.10723   -392.59349   -395.23863            0   -395.23863    2.6451387 
  127000    357.73753   -392.49993   -394.95071            0   -394.95071    2.4507838 
  128000    311.83565   -392.41082   -394.54714            0   -394.54714    2.1363198 
  129000    429.17906   -392.28414   -395.22436            0   -395.22436    2.9402146 
  130000    395.67513   -392.49397   -395.20466            0   -395.20466    2.7106863 
  131000    374.25789    -392.3948   -394.95876            0   -394.95876    2.5639613 
  132000    406.57566   -392.31612   -395.10149            0   -395.10149    2.7853635 
  133000    464.43256   -392.37332   -395.55505            0   -395.55505    3.1817288 
  134000    374.76596   -392.27816   -394.84561            0   -394.84561     2.567442 
  135000    426.90871   -392.33913   -395.26379            0   -395.26379     2.924661 
  136000    409.15298   -392.26992   -395.07294            0   -395.07294    2.8030202 
  137000    373.16807   -392.26352   -394.82002            0   -394.82002    2.5564952 
  138000    392.39854   -392.19557   -394.88381            0   -394.88381    2.6882391 
  139000    414.86514   -392.06987   -394.91202            0   -394.91202     2.842153 
  140000    382.73345   -391.97612   -394.59815            0   -394.59815    2.6220256 
  141000    462.22906   -392.07407    -395.2407            0    -395.2407    3.1666331 
  142000    451.28692   -392.06027   -395.15194            0   -395.15194    3.0916709 
  143000    412.75771   -391.91078    -394.7385            0    -394.7385    2.8277154 
  144000    452.56908   -391.80905   -394.90951            0   -394.90951    3.1004547 
  145000    372.06691   -391.85176   -394.40072            0   -394.40072    2.5489514 
  146000    441.74118   -391.83388   -394.86016            0   -394.86016     3.026275 
  147000    426.31983     -391.704   -394.62462            0   -394.62462    2.9206266 
  148000    438.08599    -391.8026   -394.80384            0   -394.80384    3.0012341 
  149000    485.34769   -391.63279    -394.9578            0    -394.9578     3.325014 
  150000    433.07894   -391.54679   -394.51373            0   -394.51373    2.9669319 
  151000    452.83666   -391.54823   -394.65051            0   -394.65051    3.1022878 
  152000    425.25004   -391.52144   -394.43474            0   -394.43474    2.9132978 
  153000    436.55078   -391.37606   -394.36677            0   -394.36677    2.9907167 
  154000     467.5738   -391.40296   -394.60621            0   -394.60621    3.2032488 
  155000    542.83385   -391.31341   -395.03225            0   -395.03225    3.7188395 
  156000    458.33462   -391.48314   -394.62309            0   -394.62309    3.1399532 
  157000    459.78866   -391.23501   -394.38492            0   -394.38492    3.1499145 
  158000    440.62759    -391.1735   -394.19215            0   -394.19215     3.018646 
  159000    488.02501   -391.09721   -394.44057            0   -394.44057    3.3433558 
  160000    457.58015    -391.0063   -394.14108            0   -394.14108    3.1347845 
  161000    463.77187   -391.05299    -394.2302            0    -394.2302    3.1772026 
  162000    526.78767   -391.09683   -394.70574            0   -394.70574    3.6089105 
  163000    402.27418   -391.01034   -393.76624            0   -393.76624     2.755895 
  164000    515.85706    -390.9693   -394.50333            0   -394.50333    3.5340272 
  165000    489.87558   -390.85445   -394.21048            0   -394.21048    3.3560336 
  166000    538.20353   -390.99266   -394.67978            0   -394.67978    3.6871181 
  167000    458.08804   -390.68771   -393.82597            0   -393.82597    3.1382639 
  168000    524.86234   -390.80024   -394.39596            0   -394.39596    3.5957204 
  169000    502.39072   -390.79776   -394.23953            0   -394.23953    3.4417722 
  170000    541.38099   -390.66373   -394.37262            0   -394.37262    3.7088862 
  171000    459.26663   -390.57356    -393.7199            0    -393.7199    3.1463382 
  172000    495.12203   -390.36867   -393.76064            0   -393.76064    3.3919759 
  173000    489.89186    -390.4645   -393.82064            0   -393.82064    3.3561451 
  174000    544.66387   -390.40478   -394.13615            0   -394.13615    3.7313765 
  175000    458.81652   -390.32987   -393.47313            0   -393.47313    3.1432546 
  176000    589.38921   -390.33187   -394.36965            0   -394.36965    4.0377804 
  177000    546.44632   -390.42533   -394.16892            0   -394.16892    3.7435877 
  178000    478.37917   -390.33698   -393.61426            0   -393.61426    3.2772741 
  179000    560.88329   -390.16755   -394.01004            0   -394.01004    3.8424924 
  180000    538.23578   -390.16849   -393.85583            0   -393.85583    3.6873391 
  181000    607.80892   -390.29552   -394.45949            0   -394.45949    4.1639698 
  182000    529.56176   -389.96138   -393.58929            0   -393.58929    3.6279152 
  183000    527.01963   -390.06647   -393.67697            0   -393.67697    3.6104996 
  184000    485.46486   -389.97221   -393.29802            0   -393.29802    3.3258167 
  185000     563.5052   -390.05539   -393.91584            0   -393.91584    3.8604545 
  186000    574.15176   -389.97081    -393.9042            0    -393.9042    3.9333918 
  187000    563.61634   -389.89321   -393.75442            0   -393.75442    3.8612159 
  188000     523.8857   -389.80142   -393.39045            0   -393.39045    3.5890297 
  189000    562.28054   -389.81202   -393.66409            0   -393.66409    3.8520646 
  190000    552.30017   -389.95085   -393.73454            0   -393.73454    3.7836912 
  191000    525.05683   -389.71709   -393.31414            0   -393.31414    3.5970529 
  192000    529.36585   -389.73588   -393.36245            0   -393.36245    3.6265731 
  193000    646.36163   -389.59497   -394.02306            0   -394.02306    4.4280863 
  194000    585.86521   -389.62986    -393.6435            0    -393.6435    4.0136382 
  195000    598.20466   -389.47955   -393.57772            0   -393.57772    4.0981731 
  196000    597.16632   -389.48578   -393.57684            0   -393.57684    4.0910597 
  197000    611.14646   -389.63639   -393.82322            0   -393.82322    4.1868346 
  198000    586.99452   -389.42603   -393.44741            0   -393.44741    4.0213748 
  199000    632.00868   -389.35614   -393.68589            0   -393.68589    4.3297573 
  200000    608.43426   -389.23759   -393.40584            0   -393.40584    4.1682539 
  201000    629.56591   -389.29947   -393.61249            0   -393.61249    4.3130224 
  202000    660.12447   -389.20277   -393.72514            0   -393.72514    4.5223726 
  203000    565.76894   -389.22748   -393.10344            0   -393.10344    3.8759629 
  204000    618.48282    -389.3136   -393.55069            0   -393.55069    4.2370945 
  205000    611.88452   -389.23033   -393.42222            0   -393.42222    4.1918909 
  206000    596.95139   -389.06295   -393.15254            0   -393.15254    4.0895873 
  207000    588.74197   -388.97197   -393.00531            0   -393.00531    4.0333462 
  208000    673.15393    -389.0636   -393.67523            0   -393.67523    4.6116347 
  209000    580.77765   -389.15393   -393.13271            0   -393.13271    3.9787844 
  210000    612.46433   -388.73898   -392.93484            0   -392.93484    4.1958631 
  211000    603.07101   -388.79222   -392.92373            0   -392.92373    4.1315115 
  212000    620.42875   -388.73799   -392.98841            0   -392.98841    4.2504257 
  213000    592.76661   -388.72518    -392.7861            0    -392.7861    4.0609182 
  214000    596.00006   -388.94987   -393.03294            0   -393.03294    4.0830698 
  215000    642.73064   -388.59845   -393.00166            0   -393.00166    4.4032111 
  216000    637.24284   -388.68966   -393.05527            0   -393.05527    4.3656154 
  217000    628.99317    -388.6723    -392.9814            0    -392.9814    4.3090986 
  218000    703.36669   -388.62102   -393.43964            0   -393.43964    4.8186158 
  219000    656.62374   -388.55158   -393.04997            0   -393.04997    4.4983898 
  220000     598.9897   -388.48719   -392.59074            0   -392.59074    4.1035513 
  221000    602.52302   -388.07754   -392.20529            0   -392.20529    4.1277573 
  222000    728.50814   -388.13017   -393.12102            0   -393.12102    4.9908546 
  223000    644.91077   -388.23611   -392.65426            0   -392.65426    4.4181468 
  224000    602.12326   -388.32612   -392.45114            0   -392.45114    4.1250186 
  225000    750.31946   -388.26353   -393.40381            0   -393.40381    5.1402793 
  226000     642.3907   -388.22921   -392.63009            0   -392.63009    4.4008823 
  227000    684.96248   -388.24143   -392.93396            0   -392.93396    4.6925325 
  228000    771.17202   -388.20932   -393.49246            0   -393.49246    5.2831358 
  229000    675.45163    -388.0204   -392.64778            0   -392.64778    4.6273757 
  230000    686.31114    -387.9073   -392.60907            0   -392.60907    4.7017719 
  231000    612.68667   -388.00729   -392.20468            0   -392.20468    4.1973863 
  232000    598.11013   -387.84448     -391.942            0     -391.942    4.0975255 
  233000    690.57867   -387.86799     -392.599            0     -392.599    4.7310078 
  234000    857.61897   -387.80147   -393.67683            0   -393.67683    5.8753655 
  235000    600.69042   -387.91181   -392.02701            0   -392.02701    4.1152026 
  236000    695.84965   -387.64949   -392.41661            0   -392.41661    4.7671182 
  237000    797.72013   -387.76327   -393.22828            0   -393.22828    5.4650112 
  238000    664.56639   -387.84772   -392.40052            0   -392.40052    4.5528033 
  239000    726.59334   -387.51154   -392.48927            0   -392.48927    4.9777367 
  240000    791.84152   -387.67413   -393.09887            0   -393.09887    5.4247381 
  241000    686.92349   -387.63654   -392.34251            0   -392.34251     4.705967 
  242000    653.90431   -387.81112   -392.29088            0   -392.29088    4.4797596 
  243000    696.95174    -387.4046   -392.17926            0   -392.17926    4.7746684 
  244000    828.94577   -387.76003   -393.43897            0   -393.43897    5.6789315 
  245000    575.82804   -387.50368   -391.44856            0   -391.44856    3.9448757 
  246000    707.42003   -387.47268   -392.31907            0   -392.31907    4.8463845 
  247000    767.02222   -387.82158   -393.07628            0   -393.07628    5.2547064 
  248000    940.88512   -387.99234   -394.43815            0   -394.43815    6.4458042 
  249000    694.63686   -388.45018   -393.20899            0   -393.20899    4.7588096 
  250000    816.93277   -388.76872   -394.36535            0   -394.36535     5.596633 
  251000    829.47901   -389.05825   -394.74083            0   -394.74083    5.6825846 
  252000    707.53398   -389.23883     -394.086            0     -394.086    4.8471651 
  253000    696.75341   -389.04961   -393.82292            0   -393.82292    4.7733097 
  254000    803.14492   -389.25672    -394.7589            0    -394.7589    5.5021753 
  255000    793.73497   -389.39768   -394.83539            0   -394.83539    5.4377097 
  256000    805.24372   -389.33195    -394.8485            0    -394.8485    5.5165537 
  257000    797.05339   -389.21325   -394.67369            0   -394.67369    5.4604436 
  258000     709.4422     -389.229   -394.08924            0   -394.08924    4.8602379 
  259000    725.52174   -388.95098   -393.92138            0   -393.92138    4.9703954 
  260000    782.29702   -389.18741   -394.54676            0   -394.54676    5.3593508 
  261000    789.52925    -389.2304    -394.6393            0    -394.6393    5.4088972 
  262000    756.04719   -388.85589   -394.03541            0   -394.03541    5.1795188 
  263000    763.49848   -388.62052   -393.85109            0   -393.85109     5.230566 
  264000    793.90395   -388.30557   -393.74443            0   -393.74443    5.4388674 
  265000    801.46421   -388.68328   -394.17394            0   -394.17394    5.4906612 
  266000     867.0247   -388.59841   -394.53821            0   -394.53821    5.9398022 
  267000    752.37972   -388.78109   -393.93548            0   -393.93548    5.1543938 
  268000    829.94525   -388.54303   -394.22881            0   -394.22881    5.6857787 
  269000    764.88169   -388.75851   -393.99855            0   -393.99855     5.240042 
  270000    817.23175   -388.48051   -394.07919            0   -394.07919    5.5986812 
  271000    756.04829   -388.40967    -393.5892            0    -393.5892    5.1795263 
  272000    768.25949   -388.32054   -393.58372            0   -393.58372    5.2631827 
  273000     874.8504   -388.18525   -394.17867            0   -394.17867    5.9934143 
  274000    735.07156   -388.48132   -393.51714            0   -393.51714    5.0358192 
  275000    738.84121   -388.27577   -393.33741            0   -393.33741    5.0616442 
  276000    836.39201    -388.0103   -393.74024            0   -393.74024    5.7299441 
  277000    892.01725   -387.89248    -394.0035            0    -394.0035    6.1110208 
  278000    867.13792   -387.90292    -393.8435            0    -393.8435    5.9405778 
  279000    784.05729   -388.00429    -393.3757            0    -393.3757      5.37141 
  280000    804.13392   -387.68777   -393.19672            0   -393.19672    5.5089508 
  281000    814.91982   -387.85649   -393.43933            0   -393.43933    5.5828426 
  282000    790.57573   -387.68649   -393.10255            0   -393.10255    5.4160665 
  283000    917.20823   -387.49313   -393.77673            0   -393.77673    6.2835989 
  284000    837.54201   -387.52261   -393.26043            0   -393.26043    5.7378225 
  285000    940.40684   -387.73361   -394.17613            0   -394.17613    6.4425276 
  286000     916.2468   -387.61049    -393.8875            0    -393.8875    6.2770123 
  287000    917.98492   -387.90308     -394.192            0     -394.192    6.2889198 
  288000    965.19283   -388.19769   -394.81002            0   -394.81002    6.6123312 
  289000    883.11681   -388.92031   -394.97035            0   -394.97035    6.0500457 
  290000    1036.4005   -389.10602   -396.20618            0   -396.20618      7.10016 
  291000    870.52832   -389.38804   -395.35185            0   -395.35185    5.9638047 
  292000    867.73071   -389.24911   -395.19375            0   -395.19375    5.9446388 
  293000    725.91208   -388.93639   -393.90946            0   -393.90946    4.9730695 
  294000    817.19959   -388.83294    -394.4314            0    -394.4314    5.5984609 
  295000    753.59266   -388.70227   -393.86497            0   -393.86497    5.1627033 
  296000    883.42222   -388.48056    -394.5327            0    -394.5327     6.052138 
  297000    805.48298   -388.48928   -394.00747            0   -394.00747    5.5181929 
  298000    825.34853   -388.57705   -394.23134            0   -394.23134    5.6542875 
  299000     863.0979   -388.21571   -394.12861            0   -394.12861    5.9129005 
  300000     969.5534   -388.91051   -395.55271            0   -395.55271    6.6422045 
  301000    834.11593   -388.90568   -394.62003            0   -394.62003    5.7143511 
  302000    878.04543   -388.81649   -394.83179            0   -394.83179    6.0153028 
  303000    834.33446    -388.8716   -394.58745            0   -394.58745    5.7158483 
  304000    844.70155   -388.24204   -394.02891            0   -394.02891     5.786871 
  305000    968.35605   -388.00563   -394.63963            0   -394.63963    6.6340017 
  306000    1122.6222   -388.54761   -396.23846            0   -396.23846     7.690846 
  307000    931.40905    -388.8126   -395.19349            0   -395.19349    6.3808856 
  308000    823.53425   -388.10892   -393.75078            0   -393.75078    5.6418583 
  309000    940.89536   -388.10726   -394.55313            0   -394.55313    6.4458743 
  310000    936.26191   -388.11065   -394.52478            0   -394.52478    6.4141316 
  311000    976.96189   -388.86391   -395.55687            0   -395.55687    6.6929585 
  312000    928.29075   -388.59799   -394.95752            0   -394.95752    6.3595228 
  313000     923.6429   -388.07763   -394.40531            0   -394.40531    6.3276814 
  314000    873.52012   -387.69763   -393.68193            0   -393.68193    5.9843009 
  315000    930.64758   -387.84149   -394.21716            0   -394.21716     6.375669 
  316000    848.84205   -387.82421   -393.63945            0   -393.63945    5.8152367 
  317000    946.40967   -388.33794   -394.82159            0   -394.82159    6.4836517 
  318000     836.0407   -387.87588   -393.60342            0   -393.60342    5.7275373 
  319000     822.4212   -387.74479   -393.37902            0   -393.37902     5.634233 
  320000      965.662   -387.90627   -394.52181            0   -394.52181    6.6155453 
  321000    893.90568   -388.02009   -394.14405            0   -394.14405     6.123958 
  322000    996.44063    -388.2733    -395.0997            0    -395.0997    6.8264032 
  323000    855.17617   -388.17551   -394.03414            0   -394.03414    5.8586303 
  324000    891.16442   -387.77348   -393.87866            0   -393.87866    6.1051783 
  325000    952.04155   -387.40346   -393.92569            0   -393.92569    6.5222345 
  326000    1077.5622   -387.65079   -395.03294            0   -395.03294    7.3821498 
  327000    949.80767   -387.82972   -394.33665            0   -394.33665    6.5069307 
  328000    935.97104    -388.0946   -394.50674            0   -394.50674    6.4121389 
  329000    922.35566   -387.88385   -394.20271            0   -394.20271    6.3188628 
  330000     1045.338   -387.37176   -394.53314            0   -394.53314    7.1613884 
  331000    1096.2593   -387.41236    -394.9226            0    -394.9226    7.5102398 
  332000    938.30239   -387.41185   -393.83996            0   -393.83996    6.4281104 
  333000    952.36227   -387.10178   -393.62621            0   -393.62621    6.5244317 
  334000     1017.026   -386.99135   -393.95878            0   -393.95878     6.967429 
  335000    1067.9729   -387.19379   -394.51025            0   -394.51025    7.3164553 
  336000    892.48166    -387.1383    -393.2525            0    -393.2525    6.1142024 
  337000    1036.9429   -387.02464   -394.12851            0   -394.12851    7.1038754 
  338000    1041.7051   -387.07031   -394.20681            0   -394.20681    7.1365004 
  339000    1144.2974   -387.23304   -395.07238            0   -395.07238    7.8393383 
  340000    934.63809   -386.72819    -393.1312            0    -393.1312    6.4030071 
  341000    971.35814   -386.70778   -393.36235            0   -393.36235    6.6545684 
  342000    938.78739   -386.75103   -393.18246            0   -393.18246    6.4314331 
  343000    982.25677      -386.94   -393.66923            0   -393.66923    6.7292326 
  344000    1004.6507   -387.15771   -394.04036            0   -394.04036    6.8826489 
  345000     997.8288   -386.85661   -393.69253            0   -393.69253    6.8359133 
  346000    953.03114   -386.58947   -393.11848            0   -393.11848     6.529014 
  347000     1058.859   -386.78654   -394.04056            0   -394.04056    7.2540181 
  348000     1042.718   -386.42352   -393.56696            0   -393.56696    7.1434394 
  349000    1126.4711    -386.7388   -394.45602            0   -394.45602    7.7172146 
  350000    1142.7523   -386.84121   -394.66996            0   -394.66996    7.8287531 
  351000    905.68798   -386.79197   -392.99665            0   -392.99665    6.2046761 
  352000    1135.0144   -387.07517   -394.85091            0   -394.85091    7.7757427 
  353000    1108.2023   -386.70902   -394.30108            0   -394.30108    7.5920586 
  354000    1076.6483   -386.62454   -394.00043            0   -394.00043    7.3758886 
  355000    1105.0187   -386.45829   -394.02854            0   -394.02854    7.5702486 
  356000    1021.1101   -386.32407   -393.31948            0   -393.31948    6.9954087 
  357000    1067.7652   -386.20933   -393.52436            0   -393.52436    7.3150325 
  358000    1060.8878   -386.04995   -393.31786            0   -393.31786    7.2679168 
  359000    1133.2077   -386.32695   -394.09032            0   -394.09032    7.7633656 
  360000    1084.4427   -386.19695   -393.62624            0   -393.62624     7.429287 
  361000    1041.2845   -386.25744   -393.39106            0   -393.39106    7.1336192 
  362000    1000.5607   -386.07914   -392.93377            0   -392.93377    6.8546287 
  363000    1011.9692   -386.10415   -393.03694            0   -393.03694    6.9327861 
  364000    1050.4101   -385.68952   -392.88566            0   -392.88566    7.1961365 
  365000     1081.911   -385.58806   -393.00001            0   -393.00001    7.4119428 
  366000    1071.1439   -385.34921   -392.68739            0   -392.68739    7.3381798 
  367000    1166.9851   -385.16629   -393.16105            0   -393.16105    7.9947673 
  368000    1007.3295   -385.20182   -392.10282            0   -392.10282    6.9010005 
  369000    1122.5729   -384.80819    -392.4987            0    -392.4987    7.6905084 
  370000    1147.2321   -384.86687   -392.72631            0   -392.72631    7.8594432 
  371000    1171.5734   -385.19301   -393.21921            0   -393.21921    8.0262004 
  372000    1128.2782   -384.91883   -392.64843            0   -392.64843    7.7295943 
  373000    1252.2795   -384.85064   -393.42974            0   -393.42974     8.579101 
  374000    1213.3517   -385.98656   -394.29898            0   -394.29898    8.3124148 
  375000    1051.2493    -385.0886   -392.29048            0   -392.29048    7.2018856 
  376000    1162.7986   -384.88594   -392.85203            0   -392.85203    7.9660865 
  377000    1120.4603   -385.22997     -392.906            0     -392.906    7.6760356 
  378000     1029.158   -385.52157   -392.57211            0   -392.57211    7.0505427 
  379000    1169.5495   -385.46502   -393.47735            0   -393.47735    8.0123353 
  380000    1239.9361   -385.55257   -394.04711            0   -394.04711     8.494539 
  381000    1204.9795   -385.90653   -394.16159            0   -394.16159    8.2550587 
  382000    1199.0596   -386.17889    -394.3934            0    -394.3934     8.214503 
  383000    1037.0243   -385.73767   -392.84211            0   -392.84211    7.1044333 
  384000    1275.7379   -385.39666   -394.13647            0   -394.13647    8.7398095 
  385000    1182.3155   -385.80043   -393.90022            0   -393.90022    8.0997923 
  386000    1242.8631   -385.91379   -394.42838            0   -394.42838    8.5145912 
  387000     1126.757   -385.86913    -393.5883            0    -393.5883    7.7191727 
  388000    1131.9466   -386.08383   -393.83855            0   -393.83855    7.7547261 
  389000    1038.9565    -386.4191   -393.53677            0   -393.53677    7.1176704 
  390000    1019.3803   -385.62987   -392.61343            0   -392.61343    6.9835578 
  391000    1216.5584   -385.54281   -393.87719            0   -393.87719     8.334383 
  392000    1164.7948   -385.91396   -393.89372            0   -393.89372    7.9797617 
  393000    1197.4787   -385.89723    -394.1009            0    -394.1009    8.2036726 
  394000    1202.3359   -386.03426   -394.27121            0   -394.27121    8.2369482 
  395000    1301.7455   -385.95742    -394.8754            0    -394.8754    8.9179821 
  396000    1068.1595   -386.08603   -393.40376            0   -393.40376     7.317734 
  397000    1238.2592   -385.64024   -394.12329            0   -394.12329    8.4830509 
  398000    1157.9866     -385.707   -393.64012            0   -393.64012    7.9331204 
  399000    1166.7253    -385.4238   -393.41679            0   -393.41679    7.9929871 
  400000    1312.2806   -386.05106   -395.04122            0   -395.04122     8.990156 
  401000    1122.4717   -385.44941   -393.13922            0   -393.13922    7.6898152 
  402000    1362.4445   -385.02532   -394.35914            0   -394.35914     9.333818 
  403000    1177.0055   -385.32343   -393.38684            0   -393.38684    8.0634149 
  404000    1218.5195   -385.34517   -393.69299            0   -393.69299    8.3478183 
  405000    1253.4324   -385.29991   -393.88691            0   -393.88691    8.5869995 
  406000    1218.7749   -385.58916   -393.93872            0   -393.93872    8.3495682 
  407000    1182.5497   -385.53588   -393.63727            0   -393.63727    8.1013967 
  408000    1399.3984   -386.30201   -395.88899            0   -395.88899    9.5869816 
  409000    1016.8285   -386.30282   -393.26889            0   -393.26889    6.9660763 
  410000    1371.8734   -386.06293   -395.46134            0   -395.46134    9.3984133 
  411000    1123.5101   -386.53565   -394.23258            0   -394.23258     7.696929 
  412000    1382.7089   -386.72555   -396.19819            0   -396.19819    9.4726451 
  413000    1249.2449   -386.39528   -394.95359            0   -394.95359    8.5583113 
  414000    1186.1066   -386.74142   -394.86719            0   -394.86719    8.1257646 
  415000     1169.808   -386.68571   -394.69981            0   -394.69981     8.014106 
  416000    1253.6821   -385.84679    -394.4355            0    -394.4355    8.5887098 
  417000    1288.5159   -386.02339   -394.85074            0   -394.85074    8.8273486 
  418000    1354.8336   -386.12388   -395.40556            0   -395.40556    9.2816773 
  419000    1238.2708   -386.43713   -394.92026            0   -394.92026    8.4831304 
  420000    1200.6184   -386.12642    -394.3516            0    -394.3516    8.2251819 
  421000     1363.942   -386.43584   -395.77991            0   -395.77991    9.3440771 
  422000    1235.5954   -385.72735   -394.19216            0   -394.19216     8.464802 
  423000    1208.1746   -386.31106   -394.58801            0   -394.58801     8.276948 
  424000    1305.5065    -386.1053   -395.04904            0   -395.04904    8.9437476 
  425000    1264.6844   -385.79097   -394.45506            0   -394.45506    8.6640841 
  426000    1227.6472   -385.54613   -393.95648            0   -393.95648    8.4103506 
  427000    1335.3583   -385.63319   -394.78144            0   -394.78144    9.1482564 
  428000    1162.0936   -385.10934    -393.0706            0    -393.0706    7.9612564 
  429000    1354.6484   -385.28468   -394.56509            0   -394.56509    9.2804087 
  430000     1256.088   -384.98181     -393.587            0     -393.587    8.6051923 
  431000    1314.4488   -385.15612   -394.16113            0   -394.16113    9.0050096 
  432000    1179.4275   -385.20163   -393.28163            0   -393.28163    8.0800072 
  433000    1190.7432   -384.91472   -393.07225            0   -393.07225    8.1575288 
  434000    1435.6102   -385.62805   -395.46311            0   -395.46311     9.835061 
  435000    1144.4885   -385.60171   -393.44236            0   -393.44236    7.8406475 
  436000    1418.9294   -385.45177   -395.17255            0   -395.17255    9.7207843 
  437000    1451.2821    -385.5563   -395.49873            0   -395.49873    9.9424254 
  438000    1323.0111   -385.42549   -394.48916            0   -394.48916    9.0636678 
  439000    1468.2985   -385.64274   -395.70174            0   -395.70174    10.059001 
  440000    1265.8501   -385.71563    -394.3877            0    -394.3877    8.6720702 
  441000    1385.8377   -385.74812    -395.2422            0    -395.2422    9.4940795 
  442000    1389.1808   -385.70569   -395.22267            0   -395.22267    9.5169825 
  443000    1261.2294   -385.83918   -394.47959            0   -394.47959    8.6404146 
  444000    1403.9768   -385.39413   -395.01248            0   -395.01248    9.6183467 
  445000    1299.8356   -385.00952   -393.91442            0   -393.91442     8.904898 
  446000    1360.2068   -385.21585   -394.53434            0   -394.53434    9.3184881 
  447000    1381.5734   -385.24678   -394.71165            0   -394.71165    9.4648658 
  448000     1393.443   -385.97326   -395.51945            0   -395.51945    9.5461822 
  449000    1209.1217   -385.87248   -394.15591            0   -394.15591    8.2834364 
  450000    1424.5129   -385.28935   -395.04839            0   -395.04839    9.7590353 
  451000    1278.3107   -385.13837   -393.89581            0   -393.89581    8.7574355 
  452000    1446.9642   -384.85383   -394.76668            0   -394.76668    9.9128448 
  453000    1399.2355   -384.87385   -394.45971            0   -394.45971    9.5858654 
  454000    1239.2006   -384.99635   -393.48585            0   -393.48585    8.4894999 
  455000    1680.9963   -384.71486   -396.23101            0   -396.23101    11.516148 
  456000    1411.5991   -385.53068   -395.20124            0   -395.20124    9.6705658 
  457000    1184.8838   -385.27563   -393.39301            0   -393.39301    8.1173871 
  458000     1479.403   -385.91249   -396.04757            0   -396.04757    10.135076 
  459000    1297.0906   -386.03604   -394.92213            0   -394.92213    8.8860923 
  460000    1374.1072   -385.79751   -395.21123            0   -395.21123     9.413717 
  461000     1343.713   -385.56156   -394.76706            0   -394.76706    9.2054925 
  462000    1549.6137   -384.94258   -395.55865            0   -395.55865    10.616074 
  463000    1525.9043    -385.6369   -396.09055            0   -396.09055    10.453647 
  464000     1471.306   -386.26218   -396.34178            0   -396.34178    10.079605 
  465000     1393.273   -386.44907   -395.99409            0   -395.99409    9.5450177 
  466000    1314.0546   -386.50686   -395.50917            0   -395.50917     9.002309 
  467000    1258.3584   -386.03842   -394.65917            0   -394.65917    8.6207461 
  468000    1329.1967   -385.61536   -394.72141            0   -394.72141    9.1060447 
  469000    1461.5253   -385.36082   -395.37342            0   -395.37342      10.0126 
  470000    1422.1418   -385.68892   -395.43171            0   -395.43171    9.7427918 
  471000    1321.8292   -385.90236   -394.95793            0   -394.95793    9.0555712 
  472000    1397.5123   -385.45742   -395.03148            0   -395.03148    9.5740598 
  473000    1602.0674   -385.54271   -396.51814            0   -396.51814    10.975424 
  474000    1629.6609   -386.51512   -397.67958            0   -397.67958    11.164461 
  475000    1013.5971   -385.81045   -392.75439            0   -392.75439    6.9439388 
  476000     1444.728   -386.16456   -396.06209            0   -396.06209    9.8975247 
  477000    1490.4998   -385.79808   -396.00918            0   -396.00918    10.211098 
  478000    1435.3011   -385.95229   -395.78523            0   -395.78523    9.8329431 
  479000    1456.3291      -385.57     -395.547            0     -395.547    9.9770013 
  480000    1292.7212   -385.17515    -394.0313            0    -394.0313    8.8561586 
  481000    1599.3822   -385.58058   -396.53761            0   -396.53761    10.957028 
  482000    1526.8336   -386.42535   -396.88537            0   -396.88537    10.460013 
  483000    1266.6142    -386.3903    -395.0676            0    -395.0676    8.6773052 
  484000    1469.1073   -385.80907   -395.87362            0   -395.87362    10.064542 
  485000    1651.8545   -385.76974   -397.08624            0   -397.08624    11.316504 
  486000    1292.6653   -385.56106   -394.41683            0   -394.41683    8.8557755 
  487000    1501.2804   -385.45367   -395.73863            0   -395.73863    10.284953 
  488000     1621.172   -385.70061   -396.80692            0   -396.80692    11.106305 
  489000    1356.5537   -385.44612   -394.73958            0   -394.73958    9.2934612 
  490000    1284.7936   -384.73178   -393.53362            0   -393.53362     8.801848 
  491000    1615.4297   -384.94234    -396.0093            0    -396.0093    11.066966 
  492000    1526.8418   -385.01845   -395.47852            0   -395.47852    10.460069 
  493000    1297.3621   -385.66608   -394.55404            0   -394.55404    8.8879524 
  494000    1368.8768   -385.27892    -394.6568            0    -394.6568    9.3778843 
  495000    1647.2412   -385.10849   -396.39339            0   -396.39339    11.284899 
  496000     1367.862   -385.55126    -394.9222            0    -394.9222    9.3709318 
  497000    1335.0088   -385.13768   -394.28354            0   -394.28354    9.1458617 
  498000    1536.8282   -384.35884   -394.88733            0   -394.88733    10.528484 
  499000    1537.2068   -384.93961   -395.47068            0   -395.47068    10.531078 
  500000    1382.1549   -384.29654   -393.76539            0   -393.76539    9.4688495 
  501000    1599.3755   -384.89764   -395.85463            0   -395.85463    10.956982 
  502000    1469.6222   -384.91919   -394.98726            0   -394.98726     10.06807 
  503000    1499.1252   -384.63717   -394.90736            0   -394.90736    10.270189 
  504000    1568.7191   -384.89346   -395.64043            0   -395.64043    10.746962 
  505000    1393.5305   -384.76317   -394.30995            0   -394.30995    9.5467816 
  506000     1461.177   -384.86498   -394.87519            0   -394.87519    10.010213 
  507000     1638.317   -384.84359   -396.06735            0   -396.06735    11.223762 
  508000    1743.5451   -385.31028   -397.25494            0   -397.25494    11.944657 
  509000    1338.7406   -384.92799   -394.09942            0   -394.09942    9.1714277 
  510000    1567.2077   -384.67779   -395.41439            0   -395.41439    10.736607 
  511000    1555.5411   -384.67988   -395.33656            0   -395.33656    10.656682 
  512000    1506.3565   -384.98162   -395.30135            0   -395.30135    10.319728 
  513000    1593.9934   -384.94964   -395.86975            0   -395.86975     10.92011 
  514000    1642.9958   -384.95082   -396.20664            0   -396.20664    11.255815 
  515000    1664.7735   -385.00678   -396.41179            0   -396.41179     11.40501 
  516000     1401.401   -385.40186   -395.00256            0   -395.00256    9.6007007 
  517000     1663.241   -385.32055   -396.71506            0   -396.71506    11.394511 
  518000    1597.8519   -385.18346      -396.13            0      -396.13    10.946544 
  519000    1442.7482   -384.34285   -394.22681            0   -394.22681    9.8839619 
  520000    1475.7982   -384.33503   -394.44541            0   -394.44541     10.11038 
  521000    1587.8002   -384.36313   -395.24081            0   -395.24081    10.877682 
  522000    1611.7158   -384.08033   -395.12185            0   -395.12185    11.041522 
  523000    1633.2307   -383.88445   -395.07336            0   -395.07336    11.188917 
  524000    1674.1147   -383.80456   -395.27357            0   -395.27357    11.469004 
  525000    1864.9603   -384.12393   -396.90038            0   -396.90038    12.776447 
  526000    1540.8126   -384.95731   -395.51309            0   -395.51309     10.55578 
  527000    1655.1847   -384.69022   -396.02954            0   -396.02954    11.339319 
  528000    1644.8196   -384.23452   -395.50283            0   -395.50283     11.26831 
  529000     1663.697   -384.13997    -395.5376            0    -395.5376    11.397635 
  530000    1535.4786   -384.12449   -394.64372            0   -394.64372    10.519238 
  531000    1437.2971   -383.81092   -393.65753            0   -393.65753    9.8466174 
  532000    1569.3156   -383.55936   -394.31041            0   -394.31041    10.751048 
  533000     1667.511   -383.25244    -394.6762            0    -394.6762    11.423764 
  534000    1640.4418    -383.4407   -394.67902            0   -394.67902    11.238318 
  535000    1667.2876   -383.49058   -394.91281            0   -394.91281    11.422233 
  536000    1920.3191   -383.15679   -396.31249            0   -396.31249    13.155698 
  537000    1469.7385   -383.69538   -393.76425            0   -393.76425    10.068866 
  538000    1765.8563   -383.65786   -395.75537            0   -395.75537    12.097507 
  539000    1617.5098   -383.93342   -395.01464            0   -395.01464    11.081216 
  540000    1794.8369   -383.94936   -396.24541            0   -396.24541    12.296046 
  541000    1540.7987   -383.92719   -394.48288            0   -394.48288    10.555685 
  542000    1395.7782   -383.82978   -393.39196            0   -393.39196    9.5621801 
  543000    1526.1918   -384.14114   -394.59676            0   -394.59676    10.455616 
  544000    1560.1578   -383.92563   -394.61394            0   -394.61394     10.68831 
  545000    1523.4975   -383.99793   -394.43509            0   -394.43509    10.437158 
  546000    1589.8323   -383.72211   -394.61371            0   -394.61371    10.891603 
  547000    1584.7405   -383.18477   -394.04149            0   -394.04149    10.856721 
  548000    1673.9657    -383.4752   -394.94319            0   -394.94319    11.467983 
  549000    1614.5805   -383.10122   -394.16237            0   -394.16237    11.061148 
  550000    1701.4592   -383.01046   -394.66679            0   -394.66679    11.656335 
  551000    1794.5289   -383.08855   -395.38249            0   -395.38249    12.293936 
  552000    1563.3837   -382.49838   -393.20879            0   -393.20879     10.71041 
  553000    1697.5721   -382.51457   -394.14428            0   -394.14428    11.629706 
  554000    1647.1586   -383.14117    -394.4255            0    -394.4255    11.284334 
  555000    1497.1166   -382.33902   -392.59544            0   -392.59544    10.256428 
  556000    1811.5071   -382.53386   -394.94411            0   -394.94411    12.410251 
  557000    1725.7341   -382.25858   -394.08122            0   -394.08122    11.822638 
  558000    1562.8082   -382.74667   -393.45313            0   -393.45313    10.706467 
  559000    1702.8716   -382.75112   -394.41713            0   -394.41713    11.666012 
  560000     1732.905   -382.64492   -394.51668            0   -394.51668    11.871764 
  561000    1849.4399    -383.2405   -395.91062            0   -395.91062     12.67012 
  562000    1456.6459   -382.35611   -392.33528            0   -392.33528    9.9791719 
  563000    1864.4835   -382.52706   -395.30024            0   -395.30024    12.773181 
  564000     1566.642   -382.78452   -393.51725            0   -393.51725    10.732732 
  565000     1603.149   -382.12856   -393.11139            0   -393.11139    10.982833 
  566000    1863.7983   -382.31632   -395.08481            0   -395.08481    12.768487 
  567000    1728.2357   -382.84673    -394.6865            0    -394.6865    11.839776 
  568000    1329.2158   -382.61456   -391.72073            0   -391.72073    9.1061751 
  569000     1716.344   -381.70543   -393.46374            0   -393.46374    11.758308 
  570000    1812.8949   -382.09737   -394.51713            0   -394.51713    12.419758 
  571000    1747.5989   -382.48866   -394.46109            0   -394.46109    11.972429 
  572000    1649.7566   -382.07037    -393.3725            0    -393.3725    11.302133 
  573000    1709.9536   -382.09008   -393.80461            0   -393.80461    11.714529 
  574000    1677.5633   -381.71457    -393.2072            0    -393.2072     11.49263 
  575000    1943.2136   -381.69459   -395.00713            0   -395.00713    13.312544 
  576000    1871.6959   -382.79057   -395.61316            0   -395.61316    12.822591 
  577000    1545.5626   -381.91023   -392.49855            0   -392.49855    10.588321 
  578000    1892.3206      -381.39   -394.35388            0   -394.35388    12.963887 
  579000    1834.0975   -382.43759    -395.0026            0    -395.0026    12.565013 
  580000    1714.9562   -381.98416   -393.73296            0   -393.73296      11.7488 
  581000    1698.3891   -382.23549   -393.87079            0   -393.87079    11.635303 
  582000    1810.3638    -382.3131   -394.71552            0   -394.71552    12.402418 
  583000    1513.5244   -381.66036   -392.02919            0   -392.02919    10.368834 
  584000    1779.3146   -381.72224   -393.91195            0   -393.91195    12.189707 
  585000    1752.7486   -381.72665   -393.73436            0   -393.73436    12.007709 
  586000    1882.0225   -381.84103   -394.73437            0   -394.73437    12.893336 
  587000    1692.3662    -381.6836   -393.27764            0   -393.27764    11.594041 
  588000    1456.0068   -380.87672   -390.85151            0   -390.85151    9.9747933 
  589000    1612.1376   -381.43492   -392.47933            0   -392.47933    11.044412 
  590000    1791.2244    -381.4969    -393.7682            0    -393.7682    12.271298 
  591000    1846.5895   -381.60139   -394.25198            0   -394.25198    12.650593 
  592000    1838.8135    -381.5551   -394.15242            0   -394.15242    12.597321 
  593000    1735.9912   -380.87567   -392.76858            0   -392.76858    11.892907 
  594000    1866.3421   -380.97335   -393.75927            0   -393.75927    12.785914 
  595000    1774.1195   -381.72067   -393.87478            0   -393.87478    12.154116 
  596000    1777.1359   -381.02768   -393.20246            0   -393.20246    12.174781 
  597000    1766.1574   -380.58142   -392.68099            0   -392.68099    12.099569 
  598000    1714.3972   -380.28056   -392.02554            0   -392.02554    11.744971 
  599000    1843.4823   -380.12484   -392.75415            0   -392.75415    12.629306 
  600000    1662.7765   -380.39376   -391.78509            0   -391.78509    11.391329 
  601000    1826.9558   -380.14923   -392.66532            0   -392.66532    12.516087 
  602000    1782.3492   -380.60754   -392.81803            0   -392.81803    12.210496 
  603000     1586.601   -380.44058   -391.31005            0   -391.31005    10.869467 
  604000    2055.4773   -380.67236     -394.754            0     -394.754    14.081639 
  605000    1753.0093   -380.58279   -392.59229            0   -392.59229    12.009494 
  606000    1876.9063   -379.56047   -392.41876            0   -392.41876    12.858287 
  607000    1883.6116   -380.13002   -393.03424            0   -393.03424    12.904223 
  608000    1591.7803   -380.21413   -391.11908            0   -391.11908    10.904949 
  609000    2105.1263   -379.75199   -394.17377            0   -394.17377    14.421773 
  610000    1713.0081    -379.9643   -391.69975            0   -391.69975    11.735455 
  611000    2083.6509   -380.43128   -394.70592            0   -394.70592     14.27465 
  612000    1778.9923   -380.28329   -392.47079            0   -392.47079    12.187498 
  613000    1506.5282   -380.60636   -390.92727            0   -390.92727    10.320905 
  614000    1751.5959    -380.4764   -392.47621            0   -392.47621    11.999812 
  615000    1745.1829   -380.83646   -392.79234            0   -392.79234    11.955878 
  616000    1724.7273    -380.5129   -392.32864            0   -392.32864    11.815741 
  617000     1645.237   -380.02875   -391.29992            0   -391.29992    11.271169 
  618000    1697.2384   -379.49813   -391.12555            0   -391.12555     11.62742 
  619000    1904.8846   -379.34989   -392.39985            0   -392.39985     13.04996 
  620000    1949.7057   -379.12228    -392.4793            0    -392.4793     13.35702 
  621000    1689.7558   -379.25963   -390.83578            0   -390.83578    11.576159 
  622000    1905.8829   -379.47559   -392.53239            0   -392.53239    13.056799 
  623000    1712.2632   -379.50745   -391.23781            0   -391.23781    11.730352 
  624000    1916.2592   -378.86237   -391.99026            0   -391.99026    13.127885 
  625000    1779.6885   -379.15468   -391.34694            0   -391.34694    12.192268 
  626000    1826.7226   -379.16123   -391.67572            0   -391.67572    12.514489 
  627000    2118.5737   -378.94476   -393.45866            0   -393.45866    14.513899 
  628000    1883.7621   -379.29929   -392.20455            0   -392.20455    12.905254 
  629000    1659.2064   -378.99493    -390.3618            0    -390.3618    11.366871 
  630000    2116.3594   -379.08092   -393.57965            0   -393.57965    14.498729 
  631000    1897.0514   -379.40054   -392.39684            0   -392.39684    12.996296 
  632000    1881.3744   -379.32204   -392.21094            0   -392.21094    12.888897 
  633000    2206.3517   -379.67726    -394.7925            0    -394.7925    15.115247 
  634000    1838.5308   -379.11848   -391.71386            0   -391.71386    12.595384 
  635000    1856.3897   -380.26524   -392.98298            0   -392.98298    12.717732 
  636000    1693.3274   -379.82065   -391.42128            0   -391.42128    11.600626 
  637000    1851.0862   -379.53766   -392.21906            0   -392.21906    12.681399 
  638000    1829.6234   -379.58153   -392.11589            0   -392.11589    12.534361 
  639000    1970.1123   -378.69725   -392.19407            0   -392.19407    13.496821 
  640000    2085.2716   -378.74384    -393.0296            0    -393.0296    14.285753 
  641000    1544.1781    -378.8572   -389.43604            0   -389.43604    10.578837 
  642000    1972.0104   -378.48869   -391.99852            0   -391.99852    13.509824 
  643000    2086.9181   -378.65948   -392.95651            0   -392.95651    14.297033 
  644000    1882.2372   -379.51716   -392.41197            0   -392.41197    12.894808 
  645000    1952.3888   -378.71908   -392.09448            0   -392.09448    13.375401 
  646000     1828.128   -378.61253   -391.13665            0   -391.13665    12.524117 
  647000    1974.6359   -377.97273   -391.50054            0   -391.50054    13.527811 
  648000     1791.373   -377.34349    -389.6158            0    -389.6158    12.272316 
  649000    2012.8173   -378.04199   -391.83138            0   -391.83138    13.789384 
  650000    1655.9026   -377.76156    -389.1058            0    -389.1058    11.344237 
  651000    2154.7746   -378.41438   -393.17628            0   -393.17628    14.761903 
  652000    2001.0275   -378.13372   -391.84234            0   -391.84234    13.708614 
  653000    1915.1235   -378.78168   -391.90178            0   -391.90178    13.120104 
  654000    2024.4466   -378.32757   -392.19662            0   -392.19662    13.869054 
  655000    1873.3877   -378.31655   -391.15073            0   -391.15073    12.834182 
  656000    1907.5909   -377.83742   -390.90592            0   -390.90592      13.0685 
  657000    2184.7487   -378.34231   -393.30956            0   -393.30956     14.96725 
  658000    1880.8751   -378.38012   -391.26559            0   -391.26559    12.885476 
  659000    1920.2278   -377.90042   -391.05549            0   -391.05549    13.155073 
  660000    1716.5746   -378.48801   -390.24789            0   -390.24789    11.759888 
  661000     2073.071   -378.63571   -392.83788            0   -392.83788    14.202169 
  662000     1781.621   -377.66665   -389.87216            0   -389.87216    12.205507 
  663000    1926.9277   -376.66899   -389.86996            0   -389.86996    13.200972 
  664000    2113.1451   -376.98654   -391.46325            0   -391.46325    14.476709 
  665000    1847.6751   -377.20952   -389.86756            0   -389.86756     12.65803 
  666000    2201.9486   -377.46715   -392.55223            0   -392.55223    15.085083 
  667000    1772.2744   -376.73553   -388.87701            0   -388.87701    12.141475 
  668000    2199.4995   -376.51296   -391.58127            0   -391.58127    15.068304 
  669000    2257.1765   -377.00843   -392.47187            0   -392.47187    15.463437 
  670000    1911.5834   -377.52366   -390.61952            0   -390.61952    13.095852 
  671000    2154.9455   -377.37046   -392.13354            0   -392.13354    14.763074 
  672000    1950.8766   -377.62509   -390.99013            0   -390.99013    13.365042 
  673000    1862.5151    -376.8405   -389.60019            0   -389.60019    12.759695 
  674000    1955.2206   -376.57485   -389.96965            0   -389.96965    13.394801 
  675000    2250.5079   -377.11873   -392.53648            0   -392.53648    15.417752 
  676000    1810.8967    -377.7632   -390.16927            0   -390.16927    12.406069 
  677000    1926.9182   -377.10736   -390.30827            0   -390.30827    13.200908 
  678000    1905.5569   -377.74918   -390.80375            0   -390.80375    13.054566 
  679000    1980.7577   -377.55022   -391.11997            0   -391.11997    13.569751 
  680000    2248.8922   -376.65651    -392.0632            0    -392.0632    15.406683 
  681000    1916.7605   -376.96577   -390.09709            0   -390.09709    13.131319 
  682000    2039.8659   -377.10371    -391.0784            0    -391.0784    13.974688 
  683000    2230.0347   -377.42671    -392.7042            0    -392.7042    15.277494 
  684000    2083.5754   -377.85133   -392.12546            0   -392.12546    14.274132 
  685000    2023.3286   -376.84902   -390.71041            0   -390.71041    13.861395 
  686000    1889.3618   -376.38466   -389.32828            0   -389.32828    12.943617 
  687000    2144.9595   -375.14222   -389.83688            0   -389.83688    14.694662 
  688000    2086.5277   -375.48404   -389.77839            0   -389.77839    14.294358 
  689000    2265.5459   -376.02253    -391.5433            0    -391.5433    15.520774 
  690000    2286.5583   -376.39721   -392.06193            0   -392.06193    15.664726 
  691000    2085.5368   -376.46223    -390.7498            0    -390.7498     14.28757 
  692000    1972.8238   -376.31299   -389.82839            0   -389.82839    13.515397 
  693000    2158.5678   -376.14063   -390.92852            0   -390.92852     14.78789 
  694000    2090.5421   -376.11191   -390.43377            0   -390.43377     14.32186 
  695000    2336.4947   -375.72747    -391.7343            0    -391.7343    16.006829 
  696000    2212.3794   -375.08578   -390.24232            0   -390.24232    15.156542 
  697000    2441.0611   -376.01283   -392.73602            0   -392.73602    16.723191 
  698000    1882.9952   -375.65771   -388.55771            0   -388.55771         12.9 
  699000    2045.7387   -376.32046   -390.33538            0   -390.33538    14.014922 
  700000    2031.2649   -376.80387   -390.71964            0   -390.71964    13.915765 
  701000    2081.2302   -375.97055   -390.22862            0   -390.22862    14.258066 
  702000    1779.6367   -376.79402   -388.98593            0   -388.98593    12.191913 
  703000    2183.1648   -375.45881   -390.41521            0   -390.41521    14.956399 
  704000    2227.7337   -375.90269   -391.16442            0   -391.16442    15.261731 
  705000    2333.4916   -375.98046   -391.96671            0   -391.96671    15.986255 
  706000    1741.4491    -375.5915    -387.5218            0    -387.5218    11.930298 
  707000    2331.1133   -375.12676   -391.09672            0   -391.09672    15.969963 
  708000    2190.2876   -374.91784   -389.92304            0   -389.92304    15.005195 
  709000    2113.3262   -374.30387   -388.78182            0   -388.78182    14.477949 
  710000    2275.6596   -374.25483   -389.84489            0   -389.84489    15.590061 
  711000    2058.0719   -373.21354   -387.31295            0   -387.31295    14.099414 
  712000    1994.1915    -374.0529   -387.71469            0   -387.71469    13.661782 
  713000    2186.9646   -372.74118   -387.72361            0   -387.72361     14.98243 
  714000     2053.079   -371.68469    -385.7499            0    -385.7499    14.065209 
  715000    2301.0258   -372.82752   -388.59136            0   -388.59136    15.763839 
  716000    1925.0914   -373.16397   -386.35236            0   -386.35236    13.188393 
  717000    2195.8593   -372.15303    -387.1964            0    -387.1964    15.043366 
  718000    2209.5494   -372.20393   -387.34109            0   -387.34109    15.137154 
  719000    2296.9973   -372.35524   -388.09148            0   -388.09148    15.736241 
  720000    2063.4658   -372.70059   -386.83695            0   -386.83695    14.136366 
  721000    2092.6505   -373.01722   -387.35353            0   -387.35353    14.336304 
  722000    2176.6698   -372.79519    -387.7071            0    -387.7071    14.911903 
  723000     2083.675   -372.36389   -386.63871            0   -386.63871    14.274815 
  724000    2392.5484   -373.38091   -389.77176            0   -389.77176    16.390841 
  725000    2386.4158   -373.95634   -390.30516            0   -390.30516    16.348828 
  726000    2150.1538   -373.44657   -388.17682            0   -388.17682    14.730247 
  727000    2133.8538   -373.84015   -388.45873            0   -388.45873    14.618579 
  728000    1909.2984   -373.28549   -386.36569            0   -386.36569    13.080198 
  729000    2383.3567   -372.81039   -389.13826            0   -389.13826     16.32787 
  730000    2471.4927   -374.00134   -390.93301            0   -390.93301    16.931672 
  731000    2376.2713   -373.91391   -390.19324            0   -390.19324     16.27933 
  732000    2141.1916   -373.97645    -388.6453            0    -388.6453    14.668849 
  733000    2096.7555   -374.16669   -388.53112            0   -388.53112    14.364427 
  734000    2155.4822   -373.74868   -388.51543            0   -388.51543    14.766751 
  735000     2081.908   -373.18085   -387.44356            0   -387.44356     14.26271 
  736000    2325.5216    -373.2147   -389.14636            0   -389.14636    15.931654 
  737000    2383.4554   -373.13811   -389.46666            0   -389.46666    16.328547 
  738000    2323.4624   -372.82728   -388.74483            0   -388.74483    15.917548 
  739000    2375.2782   -373.01434   -389.28687            0   -389.28687    16.272527 
  740000    2393.8839   -373.00815   -389.40814            0   -389.40814     16.39999 
  741000    1785.1188   -372.42389   -384.65336            0   -384.65336     12.22947 
  742000    2586.6939   -372.93175   -390.65264            0   -390.65264    17.720891 
  743000    2432.5449   -373.90594   -390.57079            0   -390.57079    16.664848 
  744000    2012.5065    -373.5938   -387.38105            0   -387.38105    13.787255 
  745000    2212.2483    -372.6386   -387.79425            0   -387.79425    15.155643 
  746000    2471.0216   -372.95302   -389.88146            0   -389.88146    16.928444 
  747000    2013.8418   -373.28351   -387.07991            0   -387.07991    13.796403 
  748000    2471.4056   -372.10465   -389.03572            0   -389.03572    16.931075 
  749000    2468.5542   -373.15149   -390.06303            0   -390.06303    16.911541 
  750000    2152.0589   -373.80642   -388.54972            0   -388.54972    14.743298 
  751000    2168.7357   -372.89988   -387.75743            0   -387.75743    14.857548 
  752000    2324.7571   -373.24428   -389.17069            0   -389.17069    15.926418 
  753000    2420.3299   -373.65743    -390.2386            0    -390.2386    16.581167 
  754000    1908.9008   -374.59479   -387.67226            0   -387.67226    13.077474 
  755000    1975.7237   -372.84402   -386.37928            0   -386.37928    13.535264 
  756000    2142.2486   -371.73653   -386.41262            0   -386.41262     14.67609 
  757000    2291.5684   -372.24209   -387.94114            0   -387.94114    15.699048 
  758000    2593.5303   -371.75058   -389.51831            0   -389.51831    17.767726 
  759000    1972.3739   -372.48716   -385.99947            0   -385.99947    13.512315 
  760000    2383.7092    -372.6017   -388.93199            0   -388.93199    16.330286 
  761000    2122.2865   -372.73934   -387.27868            0   -387.27868    14.539334 
  762000    2355.3759   -372.48231   -388.61849            0   -388.61849     16.13618 
  763000    2563.2234   -372.77152   -390.33162            0   -390.33162    17.560099 
  764000    1818.5054   -372.32908   -384.78727            0   -384.78727    12.458194 
  765000    1945.5518   -371.60019   -384.92875            0   -384.92875    13.328562 
  766000    2495.5008   -372.39897   -389.49511            0   -389.49511    17.096146 
  767000    1949.3794   -372.61261   -385.96739            0   -385.96739    13.354784 
  768000    2441.3679   -371.68636   -388.41166            0   -388.41166    16.725293 
  769000      2405.19   -371.62224   -388.09969            0   -388.09969    16.477446 
  770000    2200.1627   -372.06735   -387.14019            0   -387.14019    15.072847 
  771000    2206.3648   -372.08338   -387.19872            0   -387.19872    15.115337 
  772000    2433.2335   -372.22127   -388.89083            0   -388.89083    16.669566 
  773000    2193.3932   -371.38432   -386.41079            0   -386.41079    15.026471 
  774000     2113.616    -371.2928   -385.77274            0   -385.77274    14.479935 
  775000    2272.6838   -370.43607   -386.00575            0   -386.00575    15.569674 
  776000    2329.3138   -370.29725   -386.25489            0   -386.25489    15.957634 
  777000    2477.3393    -370.7461   -387.71782            0   -387.71782    16.971726 
  778000    2257.3125   -370.93685   -386.40122            0   -386.40122    15.464369 
  779000    1979.7591   -368.88734   -382.45025            0   -382.45025    13.562909 
  780000    2219.9466     -368.691   -383.89938            0   -383.89938    15.208383 
  781000    2432.4619   -368.11378   -384.77806            0   -384.77806     16.66428 
  782000    2581.9799   -368.18896   -385.87756            0   -385.87756    17.688596 
  783000    2250.1639   -368.95368   -384.36907            0   -384.36907    15.415395 
  784000    2435.1308   -368.04602   -384.72858            0   -384.72858    16.682564 
  785000    2332.4684   -368.50165    -384.4809            0    -384.4809    15.979246 
  786000    2416.2862    -367.2834   -383.83687            0   -383.83687    16.553464 
  787000    2270.5631    -368.5499   -384.10504            0   -384.10504    15.555145 
  788000    2558.1302   -368.85226   -386.37747            0   -386.37747    17.525207 
  789000    2194.7885   -369.26567    -384.3017            0    -384.3017     15.03603 
  790000    2271.5809    -368.6111   -384.17322            0   -384.17322    15.562118 
  791000    2666.8879   -368.29369   -386.56397            0   -386.56397    18.270283 
  792000    2449.6958   -368.10442   -384.88676            0   -384.88676    16.782346 
  793000    2293.7364   -367.96069   -383.67459            0   -383.67459    15.713901 
  794000    2257.7738   -367.79663   -383.26416            0   -383.26416    15.467529 
  795000    2447.7771   -368.68167   -385.45087            0   -385.45087    16.769201 
  796000     2187.446    -368.6062   -383.59193            0   -383.59193    14.985728 
  797000    2618.2343   -367.65656   -385.59353            0   -385.59353    17.936967 
  798000    2276.6647    -368.1461   -383.74305            0   -383.74305    15.596947 
  799000    2487.5323   -368.18852   -385.23008            0   -385.23008    17.041556 
  800000    2383.1728   -368.83605   -385.16267            0   -385.16267    16.326611 
  801000    2450.2781   -369.45714   -386.24348            0   -386.24348    16.786335 
  802000    2086.4262   -369.62439   -383.91805            0   -383.91805    14.293663 
  803000    2259.9978   -368.87387   -384.35664            0   -384.35664    15.482765 
  804000    2609.4015   -368.20994    -386.0864            0    -386.0864    17.876455 
  805000    2353.7268   -368.93215   -385.05704            0   -385.05704    16.124883 
  806000    2672.3965   -368.52746   -386.83548            0   -386.83548    18.308021 
  807000    2557.2817   -368.56523   -386.08462            0   -386.08462    17.519394 
  808000    2562.1904   -367.15407   -384.70709            0   -384.70709    17.553023 
  809000    2407.7686   -367.63662   -384.13173            0   -384.13173    16.495111 
  810000    2726.0561   -368.01388   -386.68951            0   -386.68951    18.675631 
  811000    2292.3539   -368.96309   -384.66752            0   -384.66752     15.70443 
  812000    2432.6813   -367.83526   -384.50104            0   -384.50104    16.665783 
  813000    2602.6895   -368.71544   -386.54592            0   -386.54592    17.830473 
  814000    2328.9742     -367.455    -383.4103            0    -383.4103    15.955308 
  815000    2761.8795   -365.90437   -384.82542            0   -384.82542     18.92105 
  816000    2489.4479   -365.77839   -382.83306            0   -382.83306    17.054679 
  817000    2419.9111   -367.39169   -383.96998            0   -383.96998    16.578297 
  818000    2700.1661   -366.83069   -385.32895            0   -385.32895    18.498265 
  819000    2366.7163   -366.14157   -382.35544            0   -382.35544    16.213871 
  820000     2452.785   -366.34881   -383.15232            0   -383.15232    16.803509 
  821000    2705.6025    -366.7124   -385.24791            0   -385.24791    18.535509 
  822000    2468.0556   -366.69915   -383.60727            0   -383.60727    16.908125 
  823000     2430.995   -367.20194   -383.85617            0   -383.85617     16.65423 
  824000    2290.6897   -367.47414   -383.16717            0   -383.16717    15.693029 
  825000    2126.8016   -365.53934   -380.10961            0   -380.10961    14.570266 
  826000    2674.5052   -366.17952   -384.50198            0   -384.50198    18.322468 
  827000    2506.9684   -367.10183   -384.27653            0   -384.27653    17.174708 
  828000    2269.9716     -367.089   -382.64009            0   -382.64009    15.551093 
  829000     2634.725   -367.40768   -385.45762            0   -385.45762    18.049942 
  830000    2828.8558   -368.89919   -388.27909            0   -388.27909    19.379891 
  831000    2468.1658   -368.65934   -385.56822            0   -385.56822     16.90888 
  832000    2547.5927   -367.18229   -384.63531            0   -384.63531    17.453017 
  833000    2495.1594    -367.1146   -384.20841            0   -384.20841    17.093807 
  834000    2463.6602   -367.29891   -384.17692            0   -384.17692    16.878013 
  835000    2498.2114   -367.62845   -384.74317            0   -384.74317    17.114716 
  836000    2629.8281   -367.17121    -385.1876            0    -385.1876    18.016394 
  837000    2830.2445   -369.29818   -388.68759            0   -388.68759    19.389404 
  838000    2317.0695   -368.40362   -384.27737            0   -384.27737    15.873751 
  839000    2542.3171   -367.42616   -384.84303            0   -384.84303    17.416875 
  840000    2518.0601   -367.02666   -384.27736            0   -384.27736    17.250695 
  841000    2578.1765   -366.48391   -384.14645            0   -384.14645     17.66254 
  842000    2622.3055   -366.11449   -384.07935            0   -384.07935    17.964858 
  843000    2579.9542   -366.73562   -384.41034            0   -384.41034    17.674719 
  844000    2422.0588   -367.73312   -384.32613            0   -384.32613    16.593011 
  845000    2650.1702   -367.24515    -385.4009            0    -385.4009    18.155754 
  846000    2656.4562   -366.91905   -385.11787            0   -385.11787    18.198817 
  847000    2352.8144   -366.54292   -382.66155            0   -382.66155    16.118632 
  848000    2358.8252   -365.84049    -382.0003            0    -382.0003     16.15981 
  849000    2287.0209   -365.78411     -381.452            0     -381.452    15.667895 
  850000    2684.6968   -366.97257   -385.36485            0   -385.36485    18.392288 
  851000    2391.5489   -367.71378   -384.09777            0   -384.09777    16.383994 
  852000    2135.6731   -365.51529   -380.14633            0   -380.14633    14.631043 
  853000     2654.656    -365.3444   -383.53088            0   -383.53088    18.186484 
  854000    2428.9344   -366.23306   -382.87317            0   -382.87317    16.640114 
  855000    2506.7584   -365.04599   -382.21925            0   -382.21925    17.173269 
  856000    2534.7959   -365.13714   -382.50249            0   -382.50249    17.365348 
  857000    2906.2609   -365.52302   -385.43319            0   -385.43319    19.910176 
  858000    2310.7312   -365.42948   -381.25981            0   -381.25981    15.830329 
  859000    2572.6348   -364.58019   -382.20476            0   -382.20476    17.624575 
  860000    2777.1809    -365.5224   -384.54828            0   -384.54828    19.025877 
  861000    2726.6235   -365.82881   -384.50832            0   -384.50832    18.679519 
  862000    2628.6603   -365.38579   -383.39418            0   -383.39418    18.008393 
  863000     2704.085   -366.30181   -384.82693            0   -384.82693    18.525112 
  864000    2773.0083   -366.64365   -385.64094            0   -385.64094    18.997291 
  865000    2480.1354    -366.4146   -383.40548            0   -383.40548    16.990881 
  866000    2704.1943    -366.5813   -385.10716            0   -385.10716    18.525861 
  867000    2584.1255    -367.1655   -384.86879            0   -384.86879    17.703295 
  868000    2570.8371   -365.76642   -383.37868            0   -383.37868    17.612259 
  869000    2823.1459   -365.76128   -385.10205            0   -385.10205    19.340773 
  870000    2657.4117   -365.44453   -383.64989            0   -383.64989    18.205363 
  871000     2443.575   -365.82675   -382.56717            0   -382.56717    16.740413 
  872000     2505.837   -365.61544    -382.7824            0    -382.7824    17.166957 
  873000    2403.9683   -366.00385   -382.47293            0   -382.47293    16.469076 
  874000    2914.3835   -365.62658   -385.59241            0   -385.59241    19.965823 
  875000    2178.4702   -365.37906    -380.3033            0    -380.3033    14.924237 
  876000    2529.5314   -365.94038   -383.26966            0   -383.26966    17.329283 
  877000    3023.3969   -366.14227   -386.85492            0   -386.85492     20.71265 
[...]
  939000    2744.0568   -363.12417   -381.92312            0   -381.92312     18.79895 
  940000    2735.5317   -363.72225    -382.4628            0    -382.4628    18.740547 
  941000    3073.9669   -364.23127   -385.29036            0   -385.29036    21.059094 
  942000    2803.6106   -364.92804   -384.13498            0   -384.13498    19.206941 
  943000    2353.4664    -363.3867    -379.5098            0    -379.5098    16.123098 
  944000    2699.0517   -361.85767    -380.3483            0    -380.3483     18.49063 
  945000     2683.577   -362.40392   -380.78853            0   -380.78853    18.384616 
  946000    2721.4123   -360.72451   -379.36832            0   -379.36832    18.643818 
  947000    2752.4408   -359.37809   -378.23448            0   -378.23448    18.856388 
  948000    2774.4096   -359.26109   -378.26798            0   -378.26798    19.006891 
  949000    2815.1817   -360.83429   -380.12051            0   -380.12051    19.286212 
  950000    2868.0916   -361.08667   -380.73535            0   -380.73535    19.648687 
  951000    2677.2476   -360.79089   -379.13214            0   -379.13214    18.341255 
  952000    2897.1478   -361.68039   -381.52814            0   -381.52814    19.847744 
  953000    2693.5033   -360.63686   -379.08948            0   -379.08948    18.452619 
  954000    2839.2855   -360.23735   -379.68869            0   -379.68869    19.451342 
  955000    3152.5516   -360.14496   -381.74242            0   -381.74242    21.597462 
  956000    3025.5297   -361.33092   -382.05818            0   -382.05818    20.727262 
  957000    2916.1801   -361.69717    -381.6753            0    -381.6753    19.978131 
  958000    3094.5715   -361.28172   -382.48198            0   -382.48198    21.200252 
  959000    2674.8496   -360.09798   -378.42281            0   -378.42281    18.324826 
  960000    2842.5191   -360.65313   -380.12663            0   -380.12663    19.473495 
  961000    2857.8607    -361.1027    -380.6813            0    -380.6813    19.578597 
  962000    2672.5219   -360.34369   -378.65257            0   -378.65257     18.30888 
  963000    2976.2616   -360.23158   -380.62131            0   -380.62131    20.389736 
  964000    3136.2491   -360.02789   -381.51367            0   -381.51367    21.485777 
  965000    2961.5941   -360.97817   -381.26743            0   -381.26743    20.289252 
  966000    2786.1039    -361.7311    -380.8181            0    -380.8181    19.087006 
  967000    2955.3379   -360.77112   -381.01751            0   -381.01751    20.246392 
  968000    2930.5608   -360.50157   -380.57822            0   -380.57822     20.07665 
  969000    3281.2112   -360.65841   -383.13729            0   -383.13729    22.478882 
  970000    2737.8936   -361.60246   -380.35919            0   -380.35919    18.756727 
  971000    2457.1522   -362.17679   -379.01022            0   -379.01022    16.833428 
  972000     2496.195   -361.17255   -378.27345            0   -378.27345    17.100902 
  973000    2980.9769   -361.87339   -382.29543            0   -382.29543     20.42204 
  974000     3118.116   -362.16287   -383.52442            0   -383.52442    21.361551 
  975000    2852.4142   -362.08795   -381.62923            0   -381.62923    19.541284 
  976000    2827.1424   -361.26632   -380.63447            0   -380.63447    19.368152 
  977000    2652.3261    -359.8613   -378.03182            0   -378.03182    18.170523 
  978000    2529.4451   -358.67398   -376.00267            0   -376.00267    17.328691 
  979000    2879.0685   -358.19026   -377.91415            0   -377.91415    19.723887 
  980000    2886.9673   -358.24582   -378.02382            0   -378.02382       19.778 
  981000    2748.1008   -357.30815   -376.13481            0   -376.13481    18.826655 
  982000    2687.6291    -356.2814   -374.69378            0   -374.69378    18.412376 
  983000    2958.7195   -356.60475   -376.87431            0   -376.87431    20.269559 
  984000    2905.0864   -356.03634   -375.93847            0   -375.93847     19.90213 
  985000    3109.3689   -355.88451   -377.18614            0   -377.18614    21.301626 
  986000    2940.0739   -356.02081   -376.16263            0   -376.16263    20.141822 
  987000    3126.2642   -356.37576   -377.79313            0   -377.79313    21.417372 
  988000    3115.0973   -356.28516   -377.62603            0   -377.62603    21.340871 
  989000    2822.9405   -357.01907   -376.35844            0   -376.35844    19.339366 
  990000    3108.5581   -354.76843    -376.0645            0    -376.0645    21.296072 
  991000    2604.2773   -354.79205    -372.6334            0    -372.6334    17.841351 
  992000    3115.8586   -353.88801    -375.2341            0    -375.2341    21.346086 
  993000    2708.8854   -353.79656   -372.35456            0   -372.35456    18.557999 
  994000    2976.0141   -353.64429   -374.03233            0   -374.03233    20.388041 
  995000    3033.9785   -353.50705    -374.2922            0    -374.2922    20.785143 
  996000    3211.2927   -354.56798   -376.56787            0   -376.56787    21.999884 
  997000    2851.3285   -355.43541   -374.96925            0   -374.96925    19.533846 
  998000    3057.1242   -354.20347   -375.14718            0   -375.14718    20.943709 
  999000    3122.4844   -353.97657   -375.36805            0   -375.36805    21.391478 
 1000000    3115.2462   -354.23664   -375.57853            0   -375.57853     21.34189 
Loop time of 357.763 on 1 procs for 1000000 steps with 54 atoms

Performance: 24.150 ns/day, 0.994 hours/ns, 2795.146 timesteps/s
99.8% CPU use with 1 MPI tasks x 1 OpenMP threads

MPI task timing breakdown:
Section |  min time  |  avg time  |  max time  |%varavg| %total
---------------------------------------------------------------
Pair    | 338.2      | 338.2      | 338.2      |   0.0 | 94.53
Neigh   | 0.033184   | 0.033184   | 0.033184   |   0.0 |  0.01
Comm    | 1.0546     | 1.0546     | 1.0546     |   0.0 |  0.29
Output  | 0.71975    | 0.71975    | 0.71975    |   0.0 |  0.20
Modify  | 15.339     | 15.339     | 15.339     |   0.0 |  4.29
Other   |            | 2.418      |            |       |  0.68

Nlocal:        54.0000 ave          54 max          54 min
Histogram: 1 0 0 0 0 0 0 0 0 0
Nghost:         0.00000 ave           0 max           0 min
Histogram: 1 0 0 0 0 0 0 0 0 0
Neighs:        984.000 ave         984 max         984 min
Histogram: 1 0 0 0 0 0 0 0 0 0

Total # of neighbors = 984
Ave neighs/atom = 18.222222
Neighbor list builds = 379
Dangerous builds = 0

write_restart ./endconf/bcc_chauf_real/endconf*1.restart
System init for write_restart ...

# ---------- Run MD wait phase: relaxation at Tmax ---------------------

unfix 3

thermo 1000
thermo_style custom step  temp etotal epair ebond pe ke
fix             6 all temp/berendsen  ${tempchauf} ${tempchauf} ${Tdamp}
fix             6 all temp/berendsen  3000 ${tempchauf} ${Tdamp}
fix             6 all temp/berendsen  3000 3000 ${Tdamp}
fix             6 all temp/berendsen  3000 3000 0.1
run		${iterther}
run		100000
Per MPI rank memory allocation (min/avg/max) = 5.813 | 5.813 | 5.813 Mbytes
Step Temp TotEng E_pair E_bond PotEng KinEng 
 1000000    3115.2462   -354.23664   -375.57853            0   -375.57853     21.34189 
 1001000    3122.8742    -354.6672   -376.06134            0   -376.06134    21.394148 
 1002000     3091.312   -354.53084   -375.70876            0   -375.70876    21.177922 
 1003000    3174.9038    -354.9187   -376.66929            0   -376.66929    21.750592 
 1004000    2758.4289   -352.97323   -371.87064            0   -371.87064    18.897411 
 1005000    3230.6172   -352.72004   -374.85232            0   -374.85232    22.132273 
 1006000    2847.0047     -353.621   -373.12523            0   -373.12523    19.504225 
 1007000    2625.7874   -353.95821   -371.94692            0   -371.94692    17.988712 
 1008000    2752.5127   -354.08417   -372.94105            0   -372.94105     18.85688 
 1009000    3331.8582   -354.42947   -377.25532            0   -377.25532    22.825853 
 1010000     2780.798   -352.66811   -371.71876            0   -371.71876    19.050657 
 1011000    3104.5557   -353.62543   -374.89408            0   -374.89408    21.268652 
 1012000     2995.559   -354.46036    -374.9823            0    -374.9823    20.521939 
 1013000    3101.8362   -354.18808    -375.4381            0    -375.4381    21.250021 
 1014000    3267.0242   -356.17566   -378.55735            0   -378.55735    22.381689 
 1015000     3161.019   -355.50199   -377.15746            0   -377.15746     21.65547 
 1016000    2772.4802     -355.954   -374.94767            0   -374.94767    18.993673 
 1017000    2981.3971   -355.31332   -375.73824            0   -375.73824    20.424919 
 1018000    3126.7581   -354.59606   -376.01682            0   -376.01682    21.420756 
 1019000    2969.9039    -356.7414   -377.08758            0   -377.08758    20.346181 
 1020000    2754.0502   -356.96163   -375.82904            0   -375.82904    18.867413 
 1021000    3140.1522    -355.6218   -377.13432            0   -377.13432    21.512516 
 1022000    2637.7418    -354.9347    -373.0053            0    -373.0053    18.070609 
 1023000    2874.5488   -353.10273   -372.79565            0   -372.79565    19.692924 
 1024000    2764.5574   -351.45929   -370.39869            0   -370.39869    18.939396 
 1025000    2904.2812   -352.61646   -372.51308            0   -372.51308    19.896614 
 1026000    3576.2668   -354.42458   -378.92482            0   -378.92482    24.500244 
 1027000    3096.6126   -353.83909   -375.05333            0   -375.05333    21.214236 
 1028000    3507.1393   -354.36692   -378.39359            0   -378.39359    24.026667 
 1029000    2784.8552    -356.0487   -375.12715            0   -375.12715    19.078451 
 1030000    2949.0461   -355.34188   -375.54517            0   -375.54517    20.203289 
 1031000    3148.2598   -356.60909   -378.17715            0   -378.17715     21.56806 
 1032000    2960.0936   -357.04581   -377.32479            0   -377.32479    20.278972 
 1033000    2613.8052   -357.41051   -375.31713            0   -375.31713    17.906625 
 1034000    2811.4977   -356.37631   -375.63729            0   -375.63729    19.260974 
 1035000    2887.1879   -356.50856   -376.28807            0   -376.28807    19.779511 
 1036000    2431.1719   -355.30507   -371.96051            0   -371.96051    16.655442 
 1037000    2860.8514   -354.17507   -373.77415            0   -373.77415    19.599085 
 1038000    2702.0833   -353.21938   -371.73078            0   -371.73078    18.511399 
 1039000    3076.6025   -353.10318   -374.18033            0   -374.18033     21.07715 
 1040000    3169.8042   -352.54953   -374.26518            0   -374.26518    21.715656 
 1041000    3113.0451   -352.59297   -373.91978            0   -373.91978    21.326811 
 1042000    3122.1834   -354.90399   -376.29341            0   -376.29341    21.389416 
 1043000    3262.4947   -354.71932   -377.06998            0   -377.06998    22.350658 
 1044000    3318.6034   -355.79454   -378.52959            0   -378.52959    22.735047 
 1045000    2721.6271    -354.8314   -373.47669            0   -373.47669    18.645289 
 1046000    3243.0137   -354.40274   -376.61994            0   -376.61994    22.217199 
 1047000    2918.3321   -354.27855   -374.27143            0   -374.27143    19.992874 
 1048000    3206.5993   -355.65607    -377.6238            0    -377.6238    21.967731 
 1049000    2939.0496   -355.94895   -376.08375            0   -376.08375    20.134805 
 1050000    3133.6471   -355.99746   -377.46541            0   -377.46541    21.467951 
 1051000    2823.5646   -355.17769   -374.52133            0   -374.52133    19.343642 
 1052000     3071.577   -354.89306   -375.93579            0   -375.93579    21.042722 
 1053000    2990.9885    -355.9399   -376.43053            0   -376.43053    20.490627 
 1054000    2595.9297   -355.11547   -372.89964            0   -372.89964    17.784163 
 1055000    3039.7414   -354.76857   -375.59319            0   -375.59319    20.824623 
 1056000    2864.1943   -353.61429   -373.23627            0   -373.23627    19.621987 
 1057000    3160.7666   -354.82016    -376.4739            0    -376.4739    21.653741 
 1058000    2809.4449   -354.23311   -373.48002            0   -373.48002     19.24691 
 1059000    2872.3245   -355.81144   -375.48913            0   -375.48913    19.677685 
 1060000    2779.6287   -355.01715   -374.05979            0   -374.05979    19.042646 
 1061000    2655.0255   -354.87661   -373.06563            0   -373.06563    18.189016 
 1062000    3239.4439   -354.32367   -376.51642            0   -376.51642    22.192742 
 1063000    3346.5716   -355.28995    -378.2166            0    -378.2166    22.926652 
 1064000    3376.2917   -355.62492   -378.75518            0   -378.75518    23.130258 
 1065000    2979.8167   -355.80159   -376.21568            0   -376.21568    20.414092 
 1066000    3121.2727   -353.73877   -375.12194            0   -375.12194    21.383177 
 1067000    2786.4994    -353.7126   -372.80231            0   -372.80231    19.089716 
 1068000    3174.4955   -354.57374   -376.32154            0   -376.32154    21.747795 
 1069000    2355.2957   -354.77066    -370.9063            0    -370.9063    16.135631 
 1070000    3560.5272   -353.93601   -378.32842            0   -378.32842    24.392416 
 1071000    3054.0856   -355.19656   -376.11945            0   -376.11945    20.922892 
 1072000    3257.6005    -355.1819   -377.49903            0   -377.49903    22.317129 
 1073000    2847.0778   -355.50605   -375.01077            0   -375.01077    19.504725 
 1074000    2983.2647   -355.70573   -376.14344            0   -376.14344    20.437713 
 1075000    3139.3771   -353.79823   -375.30544            0   -375.30544    21.507206 
 1076000    3288.4876   -353.95303   -376.48176            0   -376.48176     22.52873 
 1077000     2780.017   -354.22096   -373.26627            0   -373.26627    19.045306 
 1078000    3264.0555   -354.34068   -376.70203            0   -376.70203    22.361352 
 1079000    2757.2261   -353.51788   -372.40705            0   -372.40705    18.889171 
 1080000    3077.5874   -354.37887   -375.46277            0   -375.46277    21.083898 
 1081000    2940.2432   -354.29747   -374.44045            0   -374.44045    20.142982 
 1082000    2895.7434   -354.27799   -374.11611            0   -374.11611    19.838123 
 1083000    2861.2206   -353.96706   -373.56867            0   -373.56867    19.601615 
 1084000    2576.2348   -353.94549   -371.59473            0   -371.59473    17.649238 
 1085000    2940.2727     -352.368   -372.51118            0   -372.51118    20.143184 
 1086000    2990.3255   -352.85898   -373.34506            0   -373.34506    20.486085 
 1087000    2693.8883    -351.3915   -369.84676            0   -369.84676    18.455257 
 1088000    2996.0065   -350.41842   -370.94343            0   -370.94343    20.525004 
 1089000    3093.9267   -350.04506   -371.24089            0   -371.24089    21.195835 
 1090000    3202.4736    -351.1517   -373.09116            0   -373.09116    21.939467 
 1091000    3262.4328   -351.75091   -374.10114            0   -374.10114    22.350235 
 1092000    2994.6168   -352.13615   -372.65163            0   -372.65163    20.515484 
 1093000    2906.7231   -351.49668   -371.41003            0   -371.41003    19.913343 
 1094000    2978.5612   -351.69875   -372.10424            0   -372.10424     20.40549 
 1095000    2893.5656   -349.68207   -369.50527            0   -369.50527    19.823203 
 1096000    2967.0518   -349.18881   -369.51545            0   -369.51545    20.326642 
 1097000    3130.7988   -348.04719   -369.49563            0   -369.49563    21.448438 
 1098000    3600.4193   -348.70522   -373.37093            0   -373.37093    24.665708 
 1099000    3154.3625   -350.88312   -372.49298            0   -372.49298    21.609868 
 1100000    3090.6613    -351.2813   -372.45476            0   -372.45476    21.173465 
Loop time of 29.9063 on 1 procs for 100000 steps with 54 atoms

Performance: 28.890 ns/day, 0.831 hours/ns, 3343.775 timesteps/s
99.8% CPU use with 1 MPI tasks x 1 OpenMP threads

MPI task timing breakdown:
Section |  min time  |  avg time  |  max time  |%varavg| %total
---------------------------------------------------------------
Pair    | 28.328     | 28.328     | 28.328     |   0.0 | 94.72
Neigh   | 0.0068136  | 0.0068136  | 0.0068136  |   0.0 |  0.02
Comm    | 0.07509    | 0.07509    | 0.07509    |   0.0 |  0.25
Output  | 0.059096   | 0.059096   | 0.059096   |   0.0 |  0.20
Modify  | 1.2394     | 1.2394     | 1.2394     |   0.0 |  4.14
Other   |            | 0.1975     |            |       |  0.66

Nlocal:        54.0000 ave          54 max          54 min
Histogram: 1 0 0 0 0 0 0 0 0 0
Nghost:         0.00000 ave           0 max           0 min
Histogram: 1 0 0 0 0 0 0 0 0 0
Neighs:        939.000 ave         939 max         939 min
Histogram: 1 0 0 0 0 0 0 0 0 0

Total # of neighbors = 939
Ave neighs/atom = 17.388889
Neighbor list builds = 94
Dangerous builds = 0

write_restart ./endconf/bcc_chauf_real/endconf*2.restart
System init for write_restart ...

# ---------- Run MD cooling phase down to T=0K ---------------------
unfix 6

thermo ${iexport}
thermo 100000
thermo_style custom step  temp etotal epair ebond pe ke
fix             7 all temp/berendsen  ${tempchauf} 0.0 ${Tdamp}
fix             7 all temp/berendsen  3000 0.0 ${Tdamp}
fix             7 all temp/berendsen  3000 0.0 0.1
run		${iter}
run		1000000
Per MPI rank memory allocation (min/avg/max) = 5.813 | 5.813 | 5.813 Mbytes
Step Temp TotEng E_pair E_bond PotEng KinEng 
 1100000    3090.6613    -351.2813   -372.45476            0   -372.45476    21.173465 
 1200000     2612.412   -363.12683   -381.02391            0   -381.02391     17.89708 
 1300000     2421.359   -367.70233   -384.29055            0   -384.29055    16.588216 
 1400000    2040.0019   -374.29871   -388.27433            0   -388.27433     13.97562 
 1500000    2016.6332   -381.07275   -394.88828            0   -394.88828    13.815526 
 1600000    1460.2844   -386.29679   -396.30089            0   -396.30089    10.004098 
 1700000    1193.5181   -389.72614   -397.90268            0   -397.90268    8.1765388 
 1800000    905.02458   -395.82355   -402.02368            0   -402.02368    6.2001313 
 1900000    597.31751   -400.11227   -404.20437            0   -404.20437    4.0920954 
 2000000    315.47246   -404.54638   -406.70762            0   -406.70762    2.1612348 
 2100000    5.8788304    -408.7908   -408.83108            0   -408.83108  0.040274619 
Loop time of 332.432 on 1 procs for 1000000 steps with 54 atoms

Performance: 25.990 ns/day, 0.923 hours/ns, 3008.134 timesteps/s
99.9% CPU use with 1 MPI tasks x 1 OpenMP threads

MPI task timing breakdown:
Section |  min time  |  avg time  |  max time  |%varavg| %total
---------------------------------------------------------------
Pair    | 315.24     | 315.24     | 315.24     |   0.0 | 94.83
Neigh   | 0.025738   | 0.025738   | 0.025738   |   0.0 |  0.01
Comm    | 0.88462    | 0.88462    | 0.88462    |   0.0 |  0.27
Output  | 0.084062   | 0.084062   | 0.084062   |   0.0 |  0.03
Modify  | 14.1       | 14.1       | 14.1       |   0.0 |  4.24
Other   |            | 2.101      |            |       |  0.63

Nlocal:        54.0000 ave          54 max          54 min
Histogram: 1 0 0 0 0 0 0 0 0 0
Nghost:         0.00000 ave           0 max           0 min
Histogram: 1 0 0 0 0 0 0 0 0 0
Neighs:        1054.00 ave        1054 max        1054 min
Histogram: 1 0 0 0 0 0 0 0 0 0

Total # of neighbors = 1054
Ave neighs/atom = 19.518519
Neighbor list builds = 340
Dangerous builds = 0
write_restart ./endconf/bcc_chauf_real/endconf*3.restart
System init for write_restart ...

Total wall time: 0:12:06
