LAMMPS (7 Feb 2024 - Update 1)
OMP_NUM_THREADS environment is not set. Defaulting to 1 thread. (src/comm.cpp:98)
  using 1 OpenMP thread(s) per MPI task
# LAMMPS input script to load a restart file and perform minimization

#============Initialization=================
units 			metal
boundary 		p p p
atom_style 		charge


# Read the restart file directly
read_restart 	./endconf/bcc/endconf100001.restart
Reading restart file ...
  restart file = 7 Feb 2024, LAMMPS = 7 Feb 2024
  restoring atom style charge from restart
  orthogonal box = (0 0 0) to (35.2 35.2 35.2)
  1 by 1 by 1 MPI processor grid
  pair style eam/fs stores no restart info
  2000 atoms
  read_restart CPU = 0.009 seconds

#======Pair style for atom interactions=====
pair_style eam/fs
pair_coeff * * ./w.eam2.fs W


############################################
#              CLI Variables               #
############################################
variable 		seed index 200093          #
variable 		N index 2000               #
variable 		iter index 1000000000      # 1.0e9 => 1.0e-4 s
variable 		iterther index 100000000   # 1.0e8
variable 		iexport index 100000000    # 1.0e8
variable 		tempchauf index 3000       #
variable 		Tdamp index 0.1            #
variable 		timestep index 0.01	       #
variable 		box_size index 30		   #
############################################
############################################



# ---------- Run MD Heating ---------------------

fix              2 all nve
fix              3 all temp/berendsen  0.0 ${tempchauf} ${Tdamp}
fix              3 all temp/berendsen  0.0 3000 ${Tdamp}
fix              3 all temp/berendsen  0.0 3000 0.1
fix              4 all momentum 1 linear 1 1 1 angular rescale


timestep	${timestep}
timestep	0.01


thermo 1000
thermo_style custom step  temp etotal epair ebond pe ke

dump 			1 all cfg ${iexport} ./dump/bcc_chauf_real/dump.tensile_*.cfg mass type xs ys zs vx vy vz mass q id
dump 			1 all cfg 100000000 ./dump/bcc_chauf_real/dump.tensile_*.cfg mass type xs ys zs vx vy vz mass q id
dump			2 all atom ${iexport} ./tmp/bcc_chauf_real/tmp.dump
dump			2 all atom 100000000 ./tmp/bcc_chauf_real/tmp.dump
dump_modify     1 element W

run				${iter}
run				1000000000
Neighbor list info ...
  update: every = 1 steps, delay = 0 steps, check = yes
  max neighbors/atom: 2000, page size: 100000
  master list distance cutoff = 7.5
  ghost atom cutoff = 7.5
  binsize = 3.75, bins = 10 10 10
  1 neighbor lists, perpetual/occasional/extra = 1 0 0
  (1) pair eam/fs, perpetual
      attributes: half, newton on
      pair build: half/bin/atomonly/newton
      stencil: half/bin/3d
      bin: standard
Per MPI rank memory allocation (min/avg/max) = 3.648 | 3.648 | 3.648 Mbytes
   Step          Temp          TotEng         E_pair         E_bond         PotEng         KinEng    
     10000   0.001         -14753.071     -14753.071      0             -14753.071      0.00025839103
     11000   8.5882698     -16251.779     -16253.998      0             -16253.998      2.2191319    
     12000   1.132703      -16367.049     -16367.342      0             -16367.342      0.29268029   
     13000   0.12466836    -16388.618     -16388.65       0             -16388.65       0.032213187  
     14000   0.012592248   -16391.316     -16391.319      0             -16391.319      0.0032537239 
     15000   0.014281215   -16391.343     -16391.347      0             -16391.347      0.0036901378 
     16000   0.017795806   -16391.346     -16391.351      0             -16391.351      0.0045982766 
     17000   0.02032412    -16391.35      -16391.355      0             -16391.355      0.0052515703 
     18000   0.022471999   -16391.348     -16391.354      0             -16391.354      0.0058065628 
     19000   0.028565829   -16391.347     -16391.354      0             -16391.354      0.0073811538 
     20000   0.029832716   -16391.345     -16391.353      0             -16391.353      0.0077085063 
     21000   0.034028      -16391.344     -16391.353      0             -16391.353      0.00879253   
     22000   0.035522794   -16391.342     -16391.351      0             -16391.351      0.0091787713 
     23000   0.037784283   -16391.341     -16391.35       0             -16391.35       0.0097631199 
     24000   0.040873329   -16391.339     -16391.35       0             -16391.35       0.010561302  
     25000   0.044963568   -16391.337     -16391.349      0             -16391.349      0.011618183  
     26000   0.048860736   -16391.336     -16391.348      0             -16391.348      0.012625176  
     27000   0.049353192   -16391.334     -16391.347      0             -16391.347      0.012752422  
     28000   0.054352964   -16391.333     -16391.347      0             -16391.347      0.014044318  
     29000   0.056387988   -16391.331     -16391.346      0             -16391.346      0.01457015   
     30000   0.060075448   -16391.33      -16391.346      0             -16391.346      0.015522957  
     31000   0.061845667   -16391.329     -16391.345      0             -16391.345      0.015980365  
     32000   0.066952146   -16391.326     -16391.344      0             -16391.344      0.017299834  
     33000   0.068474922   -16391.325     -16391.343      0             -16391.343      0.017693306  
     34000   0.070378023   -16391.323     -16391.341      0             -16391.341      0.01818505   
     35000   0.074985526   -16391.322     -16391.341      0             -16391.341      0.019375587  
     36000   0.078334589   -16391.32      -16391.34       0             -16391.34       0.020240955  
     37000   0.081013993   -16391.319     -16391.339      0             -16391.339      0.020933289  
     38000   0.084808681   -16391.317     -16391.339      0             -16391.339      0.021913802  
     39000   0.088369799   -16391.316     -16391.338      0             -16391.338      0.022833963  
     40000   0.0906658     -16391.314     -16391.337      0             -16391.337      0.023427229  
     41000   0.093309582   -16391.313     -16391.337      0             -16391.337      0.024110359  
     42000   0.095596727   -16391.311     -16391.335      0             -16391.335      0.024701337  
     43000   0.098936625   -16391.31      -16391.335      0             -16391.335      0.025564336  
     44000   0.10220175    -16391.308     -16391.334      0             -16391.334      0.026408015  
     45000   0.10359612    -16391.307     -16391.333      0             -16391.333      0.026768308  
     46000   0.10612409    -16391.304     -16391.332      0             -16391.332      0.027421512  
     47000   0.10890067    -16391.303     -16391.331      0             -16391.331      0.028138957  
     48000   0.11410501    -16391.302     -16391.331      0             -16391.331      0.02948371   
     49000   0.11731865    -16391.3       -16391.33       0             -16391.33       0.030314087  
     50000   0.12071606    -16391.298     -16391.329      0             -16391.329      0.031191948  
     51000   0.12131372    -16391.297     -16391.328      0             -16391.328      0.031346377  
     52000   0.12378189    -16391.296     -16391.328      0             -16391.328      0