LAMMPS (7 Feb 2024 - Update 1)
OMP_NUM_THREADS environment is not set. Defaulting to 1 thread. (src/comm.cpp:98)
  using 1 OpenMP thread(s) per MPI task
# EAM potentiel for W system
# .....
#-------------Define units and atom style------------

units		metal
boundary p p p
atom_style	charge

############################################
#              CLI Variables               #
############################################
variable 		seed index 200093          #
variable 		N index 25                 #
variable 		iter index 5000000         #
variable 		iterther index 100000      #
variable 		iexport index 10000        #
variable 		tempchauf index 5000       #
variable 		Tdamp index 0.01           #
variable 		timestep index 0.0001      #
############################################
############################################


#-------------Simulation box--------------

lattice   sc 1.0
Lattice spacing in x,y,z = 1 1 1

region     bigbox block 0 40 0 40 0 40
create_box     2 bigbox
Created orthogonal box = (0 0 0) to (40 40 40)
  1 by 1 by 1 MPI processor grid

region          smallbox block 10 30 10 30 10 30 units box

#------------create atoms randomly in the small box--------

create_atoms    1 random ${N} ${seed} smallbox
create_atoms    1 random 25 ${seed} smallbox
create_atoms    1 random 25 200093 smallbox
Created 25 atoms
  using lattice units in orthogonal box = (0 0 0) to (40 40 40)
  create_atoms CPU = 0.001 seconds

mass * 183.84

#------------Define the interatomic potential -------------

pair_style eam/fs
pair_coeff * * ./w.eam2.fs W W

neighbor	0.3 bin
neigh_modify    delay 0 every 1 check yes

#--------------set initial velocity to all atoms------

velocity   all create  0.001 1563967 rot yes dist gaussian

# ---------- Run MD Heating ---------------------

fix              2 all nve
fix              3 all temp/berendsen  0.0 ${tempchauf} ${Tdamp}
fix              3 all temp/berendsen  0.0 5000 ${Tdamp}
fix              3 all temp/berendsen  0.0 5000 0.01
fix              4 all momentum 1 linear 1 1 1 angular rescale


timestep	${timestep}
timestep	0.0001


thermo 1000
thermo_style custom step  temp etotal epair ebond pe ke

dump 		1 all cfg 1000 ./dump/dump.tensile_*.cfg mass type xs ys zs vx vy vz mass q
dump		2 all atom 1000 tmp.dump
dump_modify     1 element W W

run		${iter}
run		5000000
Neighbor list info ...
  update: every = 1 steps, delay = 0 steps, check = yes
  max neighbors/atom: 2000, page size: 100000
  master list distance cutoff = 5.8
  ghost atom cutoff = 5.8
  binsize = 2.9, bins = 14 14 14
  1 neighbor lists, perpetual/occasional/extra = 1 0 0
  (1) pair eam/fs, perpetual
      attributes: half, newton on
      pair build: half/bin/atomonly/newton
      stencil: half/bin/3d
      bin: standard
WARNING: Dump 1 includes no atom IDs and is not sorted by ID. This may complicate post-processing tasks or visualization (src/dump.cpp:219)
Per MPI rank memory allocation (min/avg/max) = 3.458 | 3.458 | 3.458 Mbytes
   Step          Temp          TotEng         E_pair         E_bond         PotEng         KinEng    
         0   0.001          47.286961      47.286958      0              47.286958      3.1022435e-06
      1000   331.72134     -58.133719     -59.1628        0             -59.1628        1.0290804    
      2000   68.303223     -63.57588      -63.787773      0             -63.787773      0.21189323   
      3000   61.462781     -65.377284     -65.567957      0             -65.567957      0.19067251   
      4000   60.230714     -67.236009     -67.422859      0             -67.422859      0.18685034   
      5000   3.1622704     -67.610081     -67.619891      0             -67.619891      0.0098101328 
      6000   5.5028049     -67.622098     -67.639169      0             -67.639169      0.01707104   
      7000   6.8557567     -67.636316     -67.657584      0             -67.657584      0.021268227  
      8000   9.3331975     -67.656948     -67.685902      0             -67.685902      0.028953851  
      9000   11.787932     -67.710288     -67.746857      0             -67.746857      0.036569036  
     10000   18.343002     -67.867707     -67.924611      0             -67.924611      0.05690446   
     11000   31.242712     -68.299955     -68.396878      0             -68.396878      0.096922499  
     12000   43.392045     -69.133544     -69.268157      0             -69.268157      0.13461269   
     13000   47.762299     -70.206474     -70.354644      0             -70.354644      0.14817028   
     14000   36.068556     -71.041229     -71.153122      0             -71.153122      0.11189344   
     15000   12.043031     -71.271634     -71.308995      0             -71.308995      0.037360415  
     16000   16.52754      -71.248185     -71.299457      0             -71.299457      0.051272452  
     17000   17.972394     -71.285097     -71.340852      0             -71.340852      0.055754743  
     18000   17.472335     -71.296842     -71.351045      0             -71.351045      0.054203439  
     19000   21.200544     -71.315919     -71.381688      0             -71.381688      0.06576925   
     20000   20.186262     -71.320047     -71.38267       0             -71.38267       0.062622698  
     21000   21.920094     -71.33155      -71.399552      0             -71.399552      0.068001468  
     22000   27.61678      -71.424773     -71.510447      0             -71.510447      0.085673976  
     23000   37.277469     -71.729555     -71.845199      0             -71.845199      0.11564378   
     24000   38.07867      -72.217415     -72.335545      0             -72.335545      0.11812931   
     25000   33.093682     -72.567638     -72.670302      0             -72.670302      0.10266466   
     26000   28.596241     -72.612342     -72.701054      0             -72.701054      0.088712501  
     27000   32.416281     -72.650526     -72.751089      0             -72.751089      0.1005632    
     28000   27.590742     -72.673597     -72.75919       0             -72.75919       0.0855932    
     29000   42.976234     -72.925796     -73.059119      0             -73.059119      0.13332274   
     30000   50.772341     -73.515814     -73.673322      0             -73.673322      0.15750816   
     31000   37.312045     -74.091819     -74.20757       0             -74.20757       0.11575105   
     32000   27.702688     -73.784561     -73.870502      0             -73.870502      0.085940482  
     33000   33.255248     -74.078977     -74.182143      0             -74.182143      0.10316588   
     34000   46.48807      -73.956262     -74.10048       0             -74.10048       0.14421731   
     35000   32.510952     -74.046532     -74.147389      0             -74.147389      0.10085689   
     36000   26.814239     -74.086508     -74.169692      0             -74.169692      0.083184298  
     37000   40.352625     -74.093507     -74.218691      0             -74.218691      0.12518367   
     38000   36.389016     -74.147028     -74.259915      0             -74.259915      0.11288759   
     39000   42.518522     -74.158405     -74.290307      0             -74.290307      0.13190281   
     40000   49.591222     -74.391694     -74.545538      0             -74.545538      0.15384405   
     41000   60.613145     -74.933868     -75.121905      0             -75.121905      0.18803673   
     42000   55.517335     -75.463648     -75.635877      0             -75.635877      0.17222829   
     43000   54.190884     -75.757726     -75.925839      0             -75.925839      0.16811332   
     44000   62.754784     -76.319736     -76.514417      0             -76.514417      0.19468062   
     45000   40.305614     -76.697148     -76.822186      0             -76.822186      0.12503783   
     46000   35.152766     -76.424402     -76.533454      0             -76.533454      0.10905244   
     47000   65.675923     -76.539485     -76.743228      0             -76.743228      0.2037427    
     48000   45.833245     -76.593008     -76.735194      0             -76.735194      0.14218589   
     49000   53.164918     -76.56377      -76.7287        0             -76.7287        0.16493052   
     50000   50.403766     -76.554137     -76.710502      0             -76.710502      0.15636476   
     51000   56.95228      -76.514315     -76.690995      0             -76.690995      0.17667984   
     52000   62.115873     -76.583987     -76.776686      0             -76.776686      0.19269856   
     53000   69.602246     -76.523676     -76.739599      0             -76.739599      0.21592311   
     54000   59.053099     -76.528267     -76.711464      0             -76.711464      0.18319709   
     55000   55.896605     -76.511761     -76.685166      0             -76.685166      0.17340488   
     56000   64.155748     -76.613012     -76.812039      0             -76.812039      0.19902675   
     57000   81.387595     -77.050795     -77.303279      0             -77.303279      0.25248414   
     58000   73.809186     -77.732305     -77.961279      0             -77.961279      0.22897407   
     59000   47.050073     -77.557396     -77.703357      0             -77.703357      0.14596078   
     60000   43.331548     -77.484476     -77.618901      0             -77.618901      0.13442501   
     61000   83.157887     -77.712466     -77.970442      0             -77.970442      0.25797601   
     62000   60.562386     -77.620193     -77.808072      0             -77.808072      0.18787927   
     63000   84.957334     -77.845986     -78.109545      0             -78.109545      0.26355834   
     64000   83.464923     -78.41215      -78.671078      0             -78.671078      0.25892851   
     65000   80.513381     -78.954735     -79.204507      0             -79.204507      0.24977211   
     66000   50.063726     -78.749177     -78.904487      0             -78.904487      0.15530987   
     67000   82.092954     -78.664474     -78.919146      0             -78.919146      0.25467233   
     68000   64.04601      -78.910379     -79.109065      0             -79.109065      0.19868632   
     69000   64.019662     -78.619333     -78.817938      0             -78.817938      0.19860458   
     70000   77.21609      -78.82764      -79.067183      0             -79.067183      0.23954311   
     71000   76.622603     -78.767831     -79.005533      0             -79.005533      0.23770197   
     72000   80.037793     -78.715834     -78.964131      0             -78.964131      0.24829672   
     73000   75.558829     -78.711465     -78.945867      0             -78.945867      0.23440188   
     74000   71.075357     -78.686646     -78.907139      0             -78.907139      0.22049306   
     75000   55.168534     -78.739352     -78.910498      0             -78.910498      0.17114623   
     76000   90.678847     -78.727858     -79.009166      0             -79.009166      0.28130786   
     77000   81.146088     -78.627007     -78.878742      0             -78.878742      0.25173492   
     78000   71.499045     -78.797298     -79.019106      0             -79.019106      0.22180745   
     79000   51.240352     -78.611673     -78.770633      0             -78.770633      0.15896005   
     80000   53.141756     -78.735389     -78.900248      0             -78.900248      0.16485867   
     81000   82.834649     -78.67247      -78.929443      0             -78.929443      0.25697325   
     82000   64.975349     -78.745416     -78.946986      0             -78.946986      0.20156935   
     83000   91.376279     -78.522877     -78.806349      0             -78.806349      0.28347147   
     84000   77.654324     -78.693249     -78.934152      0             -78.934152      0.24090262   
     85000   77.884538     -78.549759     -78.791375      0             -78.791375      0.2416168    
     86000   92.805079     -78.74907      -79.036974      0             -79.036974      0.28790395   
     87000   67.765231     -78.618332     -78.828556      0             -78.828556      0.21022424   
     88000   110.96655     -78.61029      -78.954536      0             -78.954536      0.34424525   
     89000   64.968895     -78.542325     -78.743874      0             -78.743874      0.20154933   
     90000   100.04571     -78.597762     -78.908128      0             -78.908128      0.31036614   
     91000   84.935576     -78.623484     -78.886975      0             -78.886975      0.26349084   
     92000   86.522155     -78.522249     -78.790662      0             -78.790662      0.26841279   
     93000   74.281943     -78.640984     -78.871424      0             -78.871424      0.23044067   
     94000   120.27374     -78.5255       -78.898619      0             -78.898619      0.37311842   
     95000   81.868771     -78.568739     -78.822716      0             -78.822716      0.25397686   
     96000   72.915221     -78.572116     -78.798317      0             -78.798317      0.22620077   
     97000   88.848571     -78.615211     -78.890841      0             -78.890841      0.2756299    
     98000   85.066601     -78.591607     -78.855504      0             -78.855504      0.26389731   
     99000   126.60301     -78.702019     -79.094772      0             -79.094772      0.39275335   
    100000   141.08984     -78.963461     -79.401156      0             -79.401156      0.43769505   
    101000   130.67921     -79.758941     -80.16434       0             -80.16434       0.40539872   
    102000   94.501008     -79.895552     -80.188717      0             -80.188717      0.29316514   
    103000   91.911702     -79.511213     -79.796345      0             -79.796345      0.28513248   
    104000   107.61289     -79.85572      -80.189561      0             -80.189561      0.33384138   
    105000   111.30723     -79.79972      -80.145022      0             -80.145022      0.34530214   
    106000   86.989875     -79.64755      -79.917414      0             -79.917414      0.26986377   
    107000   87.920595     -79.730135     -80.002886      0             -80.002886      0.27275109   
    108000   119.8686      -79.757074     -80.128936      0             -80.128936      0.37186158   
    109000   80.972336     -79.708737     -79.959932      0             -79.959932      0.2511959    
    110000   96.981608     -79.690353     -79.991213      0             -79.991213      0.30086056   
    111000   100.89308     -79.845929     -80.158924      0             -80.158924      0.3129949    
    112000   104.73697     -79.605751     -79.930671      0             -79.930671      0.32491959   
    113000   104.89593     -79.634399     -79.959811      0             -79.959811      0.32541272   
    114000   105.56784     -79.769928     -80.097425      0             -80.097425      0.32749715   
    115000   122.03409     -79.47141      -79.84999       0             -79.84999       0.37857947   
    116000   133.05637     -79.761588     -80.174361      0             -80.174361      0.41277327   
    117000   106.23022     -79.538474     -79.868026      0             -79.868026      0.32955201   
    118000   127.61515     -79.653988     -80.049881      0             -80.049881      0.39589327   
    119000   96.846482     -79.651804     -79.952245      0             -79.952245      0.30044137   
    120000   122.09784     -79.537704     -79.916481      0             -79.916481      0.37877724   
    121000   114.60326     -79.54821      -79.903737      0             -79.903737      0.3555272    
    122000   124.29691     -79.673929     -80.059529      0             -80.059529      0.38559928   
    123000   109.58837     -79.720692     -80.060662      0             -80.060662      0.33996981   
    124000   102.15295     -79.279791     -79.596694      0             -79.596694      0.31690334   
    125000   135.96522     -79.38472      -79.806517      0             -79.806517      0.42179723   
    126000   94.593849     -79.688386     -79.981839      0             -79.981839      0.29345315   
    127000   156.283       -79.27572      -79.760548      0             -79.760548      0.48482793   
    128000   114.47088     -79.625705     -79.980822      0             -79.980822      0.35511653   
    129000   164.39811     -79.352669     -79.862672      0             -79.862672      0.51000297   
    130000   185.05811     -79.519461     -80.093557      0             -80.093557      0.57409532   
    131000   132.44433     -79.282182     -79.693057      0             -79.693057      0.41087455   
    132000   154.64846     -79.485367     -79.965125      0             -79.965125      0.47975716   
    133000   140.5257      -79.622575     -80.05852       0             -80.05852       0.43594494   
    134000   136.21453     -79.384669     -79.807239      0             -79.807239      0.42257065   
    135000   116.97504     -79.557468     -79.920353      0             -79.920353      0.36288504   
    136000   184.00449     -79.485996     -80.056822      0             -80.056822      0.57082673   
    137000   127.52601     -79.474904     -79.87052       0             -79.87052       0.39561673   
    138000   111.26053     -79.427214     -79.772371      0             -79.772371      0.34515726   
    139000   163.88076     -79.628967     -80.137365      0             -80.137365      0.50839801   
    140000   127.30657     -79.414122     -79.809058      0             -79.809058      0.39493598   
    141000   173.93217     -79.56917      -80.10875       0             -80.10875       0.53957995   
    142000   173.74769     -79.479793     -80.0188        0             -80.0188        0.53900764   
    143000   117.22497     -79.423176     -79.786837      0             -79.786837      0.36366041   
    144000   162.57101     -79.273197     -79.777532      0             -79.777532      0.50433486   
    145000   136.5573      -79.490907     -79.914541      0             -79.914541      0.42363401   
    146000   115.84192     -79.23286      -79.59223       0             -79.59223       0.35936985   
    147000   144.54657     -79.298867     -79.747286      0             -79.747286      0.44841866   
    148000   123.22538     -79.496892     -79.879167      0             -79.879167      0.38227514   
    149000   156.1951      -79.234429     -79.718984      0             -79.718984      0.48455524   
    150000   167.82759     -79.472258     -79.9929        0             -79.9929        0.52064205   
    151000   148.27051     -79.213989     -79.67396       0             -79.67396       0.45997124   
    152000   125.14893     -79.589495     -79.977738      0             -79.977738      0.38824244   
    153000   135.88614     -79.211246     -79.632798      0             -79.632798      0.42155189   
    154000   160.87105     -79.489866     -79.988927      0             -79.988927      0.49906117   
    155000   115.49604     -79.549464     -79.907761      0             -79.907761      0.35829685   
    156000   170.88331     -78.990113     -79.520234      0             -79.520234      0.53012164   
    157000   134.77436     -79.443335     -79.861438      0             -79.861438      0.41810287   
    158000   165.39351     -79.318059     -79.831149      0             -79.831149      0.51309095   
    159000   173.88896     -79.390035     -79.929481      0             -79.929481      0.53944588   
    160000   134.20185     -79.199505     -79.615832      0             -79.615832      0.41632682   
    161000   190.17512     -79.400971     -79.99094       0             -79.99094       0.58996953   
    162000   183.22307     -79.19443      -79.762832      0             -79.762832      0.56840258   
    163000   156.42594     -79.329231     -79.814502      0             -79.814502      0.48527135   
    164000   162.05993     -79.181255     -79.684004      0             -79.684004      0.50274937   
    165000   135.19824     -79.317285     -79.736703      0             -79.736703      0.41941784   
    166000   187.8904      -79.200702     -79.783584      0             -79.783584      0.58288175   
    167000   149.16125     -79.291644     -79.754379      0             -79.754379      0.46273452   
    168000   154.37083     -79.235405     -79.714301      0             -79.714301      0.4788959    
    169000   172.60838     -79.363748     -79.899221      0             -79.899221      0.53547324   
    170000   155.44791     -79.171824     -79.654061      0             -79.654061      0.48223727   
    171000   167.5454      -79.299345     -79.819112      0             -79.819112      0.51976662   
    172000   160.24314     -79.113112     -79.610225      0             -79.610225      0.49711323   
    173000   150.17776     -79.319521     -79.785409      0             -79.785409      0.46588798   
    174000   174.86194     -79.14374      -79.686204      0             -79.686204      0.54246431   
    175000   213.46947     -79.14468      -79.806915      0             -79.806915      0.66223427   
    176000   144.27331     -79.283589     -79.73116       0             -79.73116       0.44757095   
    177000   143.43026     -79.116658     -79.561614      0             -79.561614      0.44495558   
    178000   167.03757     -79.174668     -79.692859      0             -79.692859      0.51819123   
    179000   167.45606     -79.332188     -79.851677      0             -79.851677      0.51948948   
    180000   212.67843     -79.119793     -79.779574      0             -79.779574      0.65978026   
    181000   181.75838     -79.05269      -79.616549      0             -79.616549      0.56385874   
    182000   192.06167     -79.096946     -79.692768      0             -79.692768      0.59582205   
    183000   149.19587     -79.131815     -79.594657      0             -79.594657      0.46284191   
    184000   163.83585     -79.220592     -79.728851      0             -79.728851      0.50825871   
    185000   205.54107     -79.136772     -79.774411      0             -79.774411      0.63763843   
    186000   177.27468     -79.285339     -79.835288      0             -79.835288      0.54994921   
    187000   210.69806     -79.124979     -79.778616      0             -79.778616      0.65363667   
    188000   159.05973     -79.105615     -79.599057      0             -79.599057      0.49344202   
    189000   195.73751     -78.846171     -79.453396      0             -79.453396      0.60722541   
    190000   189.49954     -79.261095     -79.848968      0             -79.848968      0.5878737    
    191000   224.45895     -78.979054     -79.675381      0             -79.675381      0.69632631   
    192000   156.70747     -78.999187     -79.485332      0             -79.485332      0.48614471   
    193000   219.86198     -79.314161     -79.996226      0             -79.996226      0.6820654    
    194000   210.64676     -78.942712     -79.59619       0             -79.59619       0.65347753   
    195000   175.94174     -78.721147     -79.266961      0             -79.266961      0.54581411   
    196000   175.12809     -78.88551      -79.4288        0             -79.4288        0.54328998   
    197000   244.32767     -78.908251     -79.666215      0             -79.666215      0.75796393   
    198000   226.79141     -79.193527     -79.89709       0             -79.89709       0.70356216   
    199000   197.17385     -78.935901     -79.547583      0             -79.547583      0.61168129   
    200000   174.26265     -78.93089      -79.471495      0             -79.471495      0.54060517   
    201000   231.82218     -79.193361     -79.91253       0             -79.91253       0.71916883   
    202000   180.23172     -79.238058     -79.797181      0             -79.797181      0.55912267   
    203000   183.96581     -78.836206     -79.406913      0             -79.406913      0.57070675   
    204000   198.50381     -79.141264     -79.757071      0             -79.757071      0.61580715   
    205000   211.14692     -78.572133     -79.227163      0             -79.227163      0.65502915   
    206000   204.8927      -79.090513     -79.72614       0             -79.72614       0.63562706   
    207000   218.59611     -78.886746     -79.564884      0             -79.564884      0.67813835   
    208000   222.07907     -79.016834     -79.705778      0             -79.705778      0.68894333   
    209000   210.37683     -78.758219     -79.410859      0             -79.410859      0.65264015   
    210000   230.57846     -78.947349     -79.66266       0             -79.66266       0.71531053   
    211000   183.22588     -78.871152     -79.439564      0             -79.439564      0.5684113    
    212000   191.09922     -78.824485     -79.417321      0             -79.417321      0.5928363    
    213000   223.39612     -79.247785     -79.940815      0             -79.940815      0.69302917   
    214000   198.64406     -78.338428     -78.95467       0             -78.95467       0.61624223   
    215000   249.50143     -78.81958      -79.593595      0             -79.593595      0.77401418   
    216000   215.78828     -78.911745     -79.581173      0             -79.581173      0.66942779   
    217000   199.98734     -78.606527     -79.226936      0             -79.226936      0.62040942   
    218000   185.41607     -78.947768     -79.522973      0             -79.522973      0.57520578   
    219000   177.98049     -78.714126     -79.266265      0             -79.266265      0.55213883   
    220000   179.86416     -78.866081     -79.424063      0             -79.424063      0.55798241   
    221000   247.24577     -78.955907     -79.722923      0             -79.722923      0.76701657   
    222000   228.72081     -78.690614     -79.400162      0             -79.400162      0.70954765   
    223000   224.55428     -78.851375     -79.547997      0             -79.547997      0.69662205   
    224000   218.34734     -78.854919     -79.532286      0             -79.532286      0.67736661   
    225000   250.8225      -78.459537     -79.23765       0             -79.23765       0.77811246   
    226000   221.063       -78.804318     -79.490109      0             -79.490109      0.68579126   
    227000   226.9123      -78.636669     -79.340607      0             -79.340607      0.70393721   
    228000   281.57584     -78.807322     -79.680839      0             -79.680839      0.87351682   
    229000   231.76273     -78.833231     -79.552216      0             -79.552216      0.71898441   
    230000   239.95886     -78.559019     -79.30343       0             -79.30343       0.7444108    
    231000   221.74751     -78.75322      -79.441135      0             -79.441135      0.68791478   
    232000   251.25941     -78.697816     -79.477284      0             -79.477284      0.77946786   
    233000   238.11793     -78.41151      -79.15021       0             -79.15021       0.7386998    
    234000   200.94506     -78.87523      -79.498611      0             -79.498611      0.62338049   
    235000   242.80528     -78.787972     -79.541213      0             -79.541213      0.75324111   
    236000   215.41953     -78.572636     -79.24092       0             -79.24092       0.66828383   
    237000   250.97355     -78.791141     -79.569722      0             -79.569722      0.77858106   
    238000   193.99157     -78.485363     -79.087172      0             -79.087172      0.60180909   
    239000   213.15233     -79.048397     -79.709647      0             -79.709647      0.66125044   
    240000   266.95037     -78.443512     -79.271657      0             -79.271657      0.82814505   
    241000   232.66434     -78.798134     -79.519916      0             -79.519916      0.72178142   
    242000   253.19754     -78.765898     -79.551379      0             -79.551379      0.78548041   
    243000   270.32737     -78.349521     -79.188142      0             -79.188142      0.83862131   
    244000   261.34315     -78.841412     -79.652162      0             -79.652162      0.81075007   
    245000   257.22186     -78.487846     -79.285811      0             -79.285811      0.79796484   
    246000   265.42406     -78.392391     -79.215801      0             -79.215801      0.82341005   
    247000   267.58353     -78.752832     -79.582941      0             -79.582941      0.83010927   
    248000   211.77304     -78.121941     -78.778912      0             -78.778912      0.65697153   
    249000   269.77243     -78.658997     -79.495897      0             -79.495897      0.83689977   
    250000   219.8271      -78.640402     -79.32236       0             -79.32236       0.6819572    
    251000   236.48711     -78.700291     -79.433931      0             -79.433931      0.73364059   
    252000   277.58051     -78.756202     -79.617324      0             -79.617324      0.86112231   
    253000   262.94003     -78.576801     -79.392505      0             -79.392505      0.815704     
    254000   187.84836     -78.402699     -78.98545       0             -78.98545       0.58275135   
    255000   268.25108     -79.043223     -79.875403      0             -79.875403      0.83218017   
    256000   240.92223     -78.349386     -79.096786      0             -79.096786      0.74739942   
    257000   291.29071     -78.500297     -79.403951      0             -79.403951      0.9036547    
    258000   291.64542     -78.817003     -79.721758      0             -79.721758      0.90475511   
    259000   244.17885     -78.443579     -79.201081      0             -79.201081      0.75750224   
    260000   328.41803     -78.004555     -79.023387      0             -79.023387      1.0188327    
    261000   282.99039     -78.633732     -79.511637      0             -79.511637      0.87790509   
    262000   239.82392     -78.555723     -79.299716      0             -79.299716      0.74399219   
    263000   288.40168     -78.258089     -79.152781      0             -79.152781      0.89469222   
    264000   247.59793     -78.682246     -79.450355      0             -79.450355      0.76810906   
    265000   362.88685     -78.408024     -79.533788      0             -79.533788      1.1257634    
    266000   268.42026     -78.74798      -79.580685      0             -79.580685      0.832705     
    267000   305.87665     -77.992673     -78.941576      0             -78.941576      0.94890384   
    268000   275.94628     -78.62974      -79.485793      0             -79.485793      0.85605255   
    269000   319.59928     -78.627962     -79.619436      0             -79.619436      0.99147478   
    270000   246.95414     -78.312408     -79.07852       0             -79.07852       0.76611188   
    271000   341.76373     -78.359594     -79.419828      0             -79.419828      1.0602343    
    272000   279.51819     -78.630958     -79.498091      0             -79.498091      0.86713347   
    273000   236.95899     -78.49948      -79.234585      0             -79.234585      0.73510449   
    274000   285.71007     -78.427716     -79.314058      0             -79.314058      0.88634221   
    275000   280.08894     -78.521973     -79.390877      0             -79.390877      0.86890409   
    276000   257.41937     -78.370279     -79.168856      0             -79.168856      0.79857757   
    277000   284.1739      -78.620045     -79.501622      0             -79.501622      0.88157662   
    278000   286.99878     -78.497182     -79.387522      0             -79.387522      0.89034011   
    279000   261.66093     -78.404458     -79.216194      0             -79.216194      0.81173592   
    280000   316.78156     -78.474119     -79.456852      0             -79.456852      0.98273353   
    281000   274.89152     -78.56098      -79.413761      0             -79.413761      0.85278042   
    282000   330.49406     -78.160616     -79.185889      0             -79.185889      1.0252731    
    283000   283.47983     -78.45256      -79.331984      0             -79.331984      0.87942347   
    284000   301.09424     -78.28676      -79.220828      0             -79.220828      0.93406764   
    285000   294.32329     -78.502484     -79.415547      0             -79.415547      0.91306252   
    286000   293.67615     -78.468874     -79.379929      0             -79.379929      0.91105494   
    287000   296.48337     -78.350767     -79.27053       0             -79.27053       0.91976359   
    288000   306.09699     -78.84616      -79.795747      0             -79.795747      0.94958739   
    289000   297.58666     -78.445807     -79.368993      0             -79.368993      0.92318627   
    290000   290.61236     -78.328713     -79.230264      0             -79.230264      0.90155031   
    291000   302.99924     -78.540678     -79.480656      0             -79.480656      0.93997741   
    292000   273.21694     -78.500398     -79.347983      0             -79.347983      0.84758548   
    293000   321.60667     -78.090631     -79.088333      0             -79.088333      0.99770221   
    294000   300.84        -78.788026     -79.721304      0             -79.721304      0.93327894   
    295000   294.43191     -78.313548     -79.226948      0             -79.226948      0.91339947   
    296000   292.72594     -78.514536     -79.422643      0             -79.422643      0.90810712   
    297000   266.40828     -78.381205     -79.207668      0             -79.207668      0.82646334   
    298000   301.29        -78.40772      -79.342394      0             -79.342394      0.93467494   
    299000   297.17048     -78.606686     -79.528581      0             -79.528581      0.92189518   
    300000   330.91219     -78.391313     -79.417883      0             -79.417883      1.0265702    
    301000   287.37286     -78.55673      -79.44823       0             -79.44823       0.89150057   
    302000   321.3265      -78.483542     -79.480375      0             -79.480375      0.99683304   
    303000   289.96409     -78.721849     -79.621388      0             -79.621388      0.89953921   
    304000   309.17885     -78.558992     -79.51814       0             -79.51814       0.95914806   
    305000   328.60489     -78.657391     -79.676803      0             -79.676803      1.0194124    
    306000   308.88343     -78.433648     -79.39188       0             -79.39188       0.95823161   
    307000   313.04341     -78.538758     -79.509895      0             -79.509895      0.97113686   
    308000   320.78536     -78.680617     -79.675771      0             -79.675771      0.99515429   
    309000   309.66108     -78.405295     -79.365939      0             -79.365939      0.96064408   
    310000   319.05868     -78.414581     -79.404379      0             -79.404379      0.98979771   
    311000   286.55746     -78.647488     -79.536459      0             -79.536459      0.88897101   
    312000   338.23457     -78.603449     -79.652735      0             -79.652735      1.049286     
    313000   289.21022     -78.513136     -79.410337      0             -79.410337      0.89720051   
    314000   334.5766      -78.840801     -79.878739      0             -79.878739      1.0379381    
    315000   312.90433     -78.348061     -79.318767      0             -79.318767      0.97070541   
    316000   325.72076     -78.650982     -79.661447      0             -79.661447      1.0104651    
    317000   321.98594     -78.678556     -79.677435      0             -79.677435      0.99887879   
    318000   306.64395     -78.602272     -79.553556      0             -79.553556      0.95128418   
    319000   307.5325      -78.267886     -79.221926      0             -79.221926      0.95404071   
    320000   342.01854     -78.993091     -80.054116      0             -80.054116      1.0610248    
    321000   326.77685     -78.727567     -79.741308      0             -79.741308      1.0137414    
    322000   338.8771      -78.531155     -79.582435      0             -79.582435      1.0512793    
    323000   315.61347     -78.92888      -79.907989      0             -79.907989      0.97910983   
    324000   361.56735     -78.518074     -79.639744      0             -79.639744      1.12167      
    325000   313.92914     -78.919933     -79.893818      0             -79.893818      0.97388463   
    326000   312.98553     -78.723237     -79.694194      0             -79.694194      0.97095732   
    327000   348.65559     -78.876187     -79.957802      0             -79.957802      1.0816145    
    328000   328.26982     -78.621406     -79.639779      0             -79.639779      1.0183729    
    329000   322.4967      -78.680563     -79.681026      0             -79.681026      1.0004633    
    330000   314.83714     -78.929697     -79.906399      0             -79.906399      0.97670146   
    331000   346.45114     -78.519955     -79.594731      0             -79.594731      1.0747758    
    332000   340.12875     -78.801378     -79.85654       0             -79.85654       1.0551622    
    333000   362.78868     -78.687866     -79.813325      0             -79.813325      1.1254588    
    334000   334.9946      -78.801439     -79.840673      0             -79.840673      1.0392348    
    335000   358.00207     -78.716713     -79.827323      0             -79.827323      1.1106096    
    336000   354.49437     -78.981027     -80.080755      0             -80.080755      1.0997278    
    337000   349.37197     -78.886042     -79.969879      0             -79.969879      1.0838369    
    338000   336.03611     -78.998761     -80.041226      0             -80.041226      1.0424658    
    339000   339.51909     -78.94216      -79.995431      0             -79.995431      1.0532709    
    340000   326.19112     -78.678803     -79.690727      0             -79.690727      1.0119243    
    341000   313.9509      -78.950616     -79.924568      0             -79.924568      0.97395213   
    342000   379.69549     -78.954686     -80.132594      0             -80.132594      1.1779079    
    343000   355.76706     -78.868131     -79.971807      0             -79.971807      1.103676     
    344000   327.90652     -78.901101     -79.918347      0             -79.918347      1.0172459    
    345000   349.60813     -78.914985     -79.999555      0             -79.999555      1.0845695    
    346000   331.83515     -78.825387     -79.854821      0             -79.854821      1.0294334    
    347000   330.1734      -79.077842     -80.10212       0             -80.10212       1.0242783    
    348000   335.13705     -78.897502     -79.937179      0             -79.937179      1.0396767    
    349000   335.22709     -78.945587     -79.985543      0             -79.985543      1.0399561    
    350000   339.75243     -78.968017     -80.022011      0             -80.022011      1.0539947    
    351000   353.30232     -79.060447     -80.156477      0             -80.156477      1.0960298    
    352000   373.93783     -78.93878      -80.098827      0             -80.098827      1.1600462    
    353000   347.12024     -78.846999     -79.92385       0             -79.92385       1.0768515    
    354000   347.82207     -79.015031     -80.09406       0             -80.09406       1.0790287    
    355000   352.26125     -79.071358     -80.164158      0             -80.164158      1.0928002    
    356000   363.9814      -79.02054      -80.149699      0             -80.149699      1.1291589    
    357000   351.29164     -79.039221     -80.129013      0             -80.129013      1.0897922    
    358000   357.18394     -78.843434     -79.951506      0             -79.951506      1.1080715    
    359000   357.73755     -78.920473     -80.030262      0             -80.030262      1.109789     
    360000   358.6777      -79.028941     -80.141646      0             -80.141646      1.1127056    
    361000   349.34724     -79.095938     -80.179698      0             -80.179698      1.0837602    
    362000   348.61967     -79.015991     -80.097494      0             -80.097494      1.0815031    
    363000   366.48907     -79.030607     -80.167545      0             -80.167545      1.1369383    
    364000   363.23909     -78.924612     -80.051468      0             -80.051468      1.1268561    
    365000   362.54532     -78.997737     -80.122441      0             -80.122441      1.1247038    
    366000   378.92866     -79.066489     -80.242018      0             -80.242018      1.175529     
    367000   363.76417     -79.000405     -80.12889       0             -80.12889       1.128485     
    368000   360.95542     -79.023858     -80.143629      0             -80.143629      1.1197716    
    369000   376.49414     -78.962827     -80.130803      0             -80.130803      1.1679765    
    370000   390.88099     -78.964945     -80.177553      0             -80.177553      1.212608     
    371000   373.95361     -79.063988     -80.224083      0             -80.224083      1.1600951    
    372000   362.19546     -78.957986     -80.081604      0             -80.081604      1.1236185    
    373000   386.36037     -79.020033     -80.218617      0             -80.218617      1.1985839    
    374000   364.68547     -78.978605     -80.109948      0             -80.109948      1.1313431    
    375000   361.85015     -78.995967     -80.118514      0             -80.118514      1.1225473    
    376000   384.25496     -78.926704     -80.118756      0             -80.118756      1.1920524    
    377000   382.09952     -78.995419     -80.180785      0             -80.180785      1.1853658    
    378000   393.87187     -78.997547     -80.219434      0             -80.219434      1.2218864    
    379000   371.74208     -79.057452     -80.210686      0             -80.210686      1.1532344    
    380000   375.56454     -79.065508     -80.230601      0             -80.230601      1.1650926    
    381000   379.31029     -79.024476     -80.201189      0             -80.201189      1.1767129    
    382000   376.28292     -78.994723     -80.162044      0             -80.162044      1.1673212    
    383000   380.36986     -78.909646     -80.089645      0             -80.089645      1.1799999    
    384000   385.17317     -78.937451     -80.132352      0             -80.132352      1.1949009    
    385000   375.06029     -78.886464     -80.049992      0             -80.049992      1.1635283    
    386000   375.09978     -78.968689     -80.132339      0             -80.132339      1.1636509    
    387000   389.11261     -78.973193     -80.180315      0             -80.180315      1.2071221    
    388000   391.99343     -79.018681     -80.23474       0             -80.23474       1.2160591    
    389000   395.65813     -79.099316     -80.326744      0             -80.326744      1.2274279    
    390000   394.29894     -79.038363     -80.261575      0             -80.261575      1.2232113    
    391000   401.62126     -78.981274     -80.227201      0             -80.227201      1.2459269    
    392000   399.70724     -79.017136     -80.257125      0             -80.257125      1.2399892    
    393000   402.02281     -78.961441     -80.208614      0             -80.208614      1.2471726    
    394000   391.34302     -78.934481     -80.148523      0             -80.148523      1.2140413    
    395000   403.85164     -78.999184     -80.25203       0             -80.25203       1.2528461    
    396000   393.56743     -79.040324     -80.261266      0             -80.261266      1.220942     
    397000   413.78632     -78.991482     -80.275148      0             -80.275148      1.2836659    
    398000   394.00398     -78.997303     -80.219599      0             -80.219599      1.2222963    
    399000   395.81159     -79.065313     -80.293217      0             -80.293217      1.2279039    
    400000   417.14205     -79.038735     -80.332811      0             -80.332811      1.2940762    
    401000   402.22931     -79.066371     -80.314184      0             -80.314184      1.2478133    
    402000   400.46819     -79.051041     -80.293391      0             -80.293391      1.2423498    
    403000   401.02166     -79.031973     -80.276039      0             -80.276039      1.2440668    
    404000   410.72596     -79.013795     -80.287967      0             -80.287967      1.2741719    
    405000   403.02747     -79.020505     -80.270795      0             -80.270795      1.2502893    
    406000   405.25477     -79.084201     -80.3414        0             -80.3414        1.257199     
    407000   407.93909     -78.958217     -80.223744      0             -80.223744      1.2655264    
    408000   411.58797     -79.055767     -80.332613      0             -80.332613      1.2768461    
    409000   415.41073     -79.021753     -80.310458      0             -80.310458      1.2887052    
    410000   406.8437      -79.040126     -80.302254      0             -80.302254      1.2621282    
    411000   414.83146     -78.968959     -80.255867      0             -80.255867      1.2869082    
    412000   406.52364     -79.00085      -80.261986      0             -80.261986      1.2611353    
    413000   408.60299     -79.018191     -80.285777      0             -80.285777      1.2675859    
    414000   413.9105      -79.024984     -80.309036      0             -80.309036      1.2840512    
    415000   412.90617     -79.01799      -80.298926      0             -80.298926      1.2809355    
    416000   417.64497     -78.999281     -80.294918      0             -80.294918      1.2956364    
    417000   405.97913     -79.014934     -80.27438       0             -80.27438       1.2594461    
    418000   423.49015     -79.051135     -80.364905      0             -80.364905      1.3137695    
    419000   408.22921     -79.04461      -80.311037      0             -80.311037      1.2664264    
    420000   425.32583     -79.047539     -80.367003      0             -80.367003      1.3194643    
    421000   411.30863     -79.00378      -80.279759      0             -80.279759      1.2759795    
    422000   427.95334     -79.01383      -80.341446      0             -80.341446      1.3276155    
    423000   409.38369     -79.041029     -80.311037      0             -80.311037      1.2700079    
    424000   423.05833     -78.992987     -80.305417      0             -80.305417      1.31243      
    425000   409.55747     -79.006716     -80.277263      0             -80.277263      1.270547     
    426000   424.61145     -79.03885      -80.356098      0             -80.356098      1.3172481    
    427000   426.65298     -79.001631     -80.325212      0             -80.325212      1.3235814    
    428000   435.57963     -78.947728     -80.299002      0             -80.299002      1.3512741    
    429000   424.67044     -78.981335     -80.298766      0             -80.298766      1.3174311    
    430000   424.82476     -78.979371     -80.297281      0             -80.297281      1.3179099    
    431000   434.83148     -78.985953     -80.334906      0             -80.334906      1.3489531    
    432000   435.915       -78.963473     -80.315788      0             -80.315788      1.3523145    
    433000   441.24631     -79.007968     -80.376822      0             -80.376822      1.3688535    
    434000   444.77059     -78.976146     -80.355933      0             -80.355933      1.3797867    
    435000   437.42174     -78.962785     -80.319774      0             -80.319774      1.3569887    
    436000   431.52388     -78.977316     -80.316008      0             -80.316008      1.3386921    
    437000   447.12479     -79.010052     -80.397142      0             -80.397142      1.38709      
    438000   427.40316     -79.019941     -80.34585       0             -80.34585       1.3259087    
    439000   441.50617     -79.012093     -80.381753      0             -80.381753      1.3696596    
    440000   443.44123     -78.977649     -80.353312      0             -80.353312      1.3756627    
    441000   435.06787     -79.006694     -80.35638       0             -80.35638       1.3496865    
    442000   436.73889     -78.990188     -80.345058      0             -80.345058      1.3548704    
    443000   441.31626     -78.959194     -80.328265      0             -80.328265      1.3690705    
    444000   455.07515     -78.941822     -80.353576      0             -80.353576      1.4117539    
    445000   444.56039     -78.94135      -80.320485      0             -80.320485      1.3791346    
    446000   454.87011     -79.00647      -80.417588      0             -80.417588      1.4111178    
    447000   445.75767     -78.988775     -80.371624      0             -80.371624      1.3828488    
    448000   453.72887     -78.998745     -80.406323      0             -80.406323      1.4075774    
    449000   447.3776      -78.964919     -80.352793      0             -80.352793      1.3878742    
    450000   452.20429     -78.966088     -80.368935      0             -80.368935      1.4028478    
    451000   458.5733      -78.977637     -80.400243      0             -80.400243      1.422606     
    452000   449.23181     -78.948791     -80.342418      0             -80.342418      1.3936265    
    453000   462.47772     -79.006064     -80.440782      0             -80.440782      1.4347185    
    454000   449.9199      -78.967999     -80.36376       0             -80.36376       1.3957611    
    455000   447.70397     -78.951326     -80.340213      0             -80.340213      1.3888867    
    456000   455.55422     -78.971419     -80.384659      0             -80.384659      1.4132401    
    457000   449.50185     -78.922736     -80.3172        0             -80.3172        1.3944642    
    458000   448.84992     -78.930514     -80.322955      0             -80.322955      1.3924418    
    459000   461.31427     -78.941169     -80.372278      0             -80.372278      1.4311092    
    460000   455.9748      -78.915419     -80.329964      0             -80.329964      1.4145449    
    461000   460.6382      -78.959765     -80.388777      0             -80.388777      1.4290119    
    462000   467.97705     -78.950721     -80.402499      0             -80.402499      1.4517788    
    463000   469.32815     -78.952952     -80.408923      0             -80.408923      1.4559702    
    464000   455.23875     -78.963284     -80.375546      0             -80.375546      1.4122615    
    465000   472.2576      -78.942429     -80.407487      0             -80.407487      1.465058     
    466000   464.95009     -78.946475     -80.388863      0             -80.388863      1.4423884    
    467000   470.36836     -78.946083     -80.405281      0             -80.405281      1.4591972    
    468000   480.22197     -78.912711     -80.402476      0             -80.402476      1.4897655    
    469000   469.36366     -78.945735     -80.401815      0             -80.401815      1.4560804    
    470000   467.80633     -78.918501     -80.36975       0             -80.36975       1.4512491    
    471000   460.5537      -78.914114     -80.342864      0             -80.342864      1.4287497    
    472000   465.90703     -78.93245      -80.377807      0             -80.377807      1.445357     
    473000   478.01144     -78.923169     -80.406076      0             -80.406076      1.4829079    
    474000   473.89067     -78.912985     -80.383109      0             -80.383109      1.4701242    
    475000   482.08015     -78.897538     -80.393068      0             -80.393068      1.49553      
    476000   475.43656     -78.877382     -80.352302      0             -80.352302      1.47492      
    477000   473.52913     -78.891432     -80.360435      0             -80.360435      1.4690026    
    478000   481.95846     -78.929551     -80.424703      0             -80.424703      1.4951525    
    479000   474.15861     -78.929416     -80.400372      0             -80.400372      1.4709555    
    480000   477.1405      -78.926329     -80.406535      0             -80.406535      1.480206     
    481000   480.67932     -78.902196     -80.39338       0             -80.39338       1.4911843    
    482000   479.68132     -78.872954     -80.361043      0             -80.361043      1.4880883    
    483000   476.84454     -78.904192     -80.383479      0             -80.383479      1.4792879    
    484000   481.30776     -78.894765     -80.387899      0             -80.387899      1.4931339    
    485000   489.97266     -78.875635     -80.39565       0             -80.39565       1.5200145    
    486000   487.37205     -78.921389     -80.433335      0             -80.433335      1.5119468    
    487000   490.88379     -78.910951     -80.433792      0             -80.433792      1.522841     
    488000   484.36039     -78.880959     -80.383563      0             -80.383563      1.5026038    
    489000   483.46704     -78.88344      -80.383272      0             -80.383272      1.4998325    
    490000   494.00478     -78.873534     -80.406057      0             -80.406057      1.5325231    
    491000   490.83523     -78.885447     -80.408138      0             -80.408138      1.5226904    
    492000   492.09958     -78.878322     -80.404935      0             -80.404935      1.5266127    
    493000   495.42538     -78.884592     -80.421522      0             -80.421522      1.5369302    
    494000   491.93873     -78.876067     -80.40218       0             -80.40218       1.5261137    
    495000   489.35644     -78.860335     -80.378437      0             -80.378437      1.5181028    
    496000   492.29405     -78.838815     -80.366031      0             -80.366031      1.527216     
    497000   495.77768     -78.864014     -80.402037      0             -80.402037      1.5380231    
    498000   502.43713     -78.841554     -80.400236      0             -80.400236      1.5586823    
    499000   498.84679     -78.858591     -80.406135      0             -80.406135      1.5475442    
    500000   506.29643     -78.822032     -80.392686      0             -80.392686      1.5706548    
    501000   503.79421     -78.833676     -80.396568      0             -80.396568      1.5628923    
    502000   500.282       -78.84367      -80.395667      0             -80.395667      1.5519966    
    503000   502.33606     -78.853367     -80.411735      0             -80.411735      1.5583688    
    504000   504.05303     -78.843244     -80.406939      0             -80.406939      1.5636952    
    505000   500.80502     -78.768722     -80.322341      0             -80.322341      1.5536191    
    506000   507.31014     -78.833065     -80.406865      0             -80.406865      1.5737996    
    507000   546.11205     -79.110388     -80.804561      0             -80.804561      1.6941726    
    508000   540.64921     -81.237741     -82.914966      0             -82.914966      1.6772255    
    509000   511.46888     -82.106119     -83.69282       0             -83.69282       1.586701     
    510000   476.36155     -80.702309     -82.180099      0             -82.180099      1.4777895    
    511000   541.26912     -82.195098     -83.874247      0             -83.874247      1.6791486    
    512000   522.55704     -83.244154     -84.865253      0             -84.865253      1.6210992    
    513000   561.35623     -83.740784     -85.482248      0             -85.482248      1.7414637    
    514000   486.34435     -83.573494     -85.082253      0             -85.082253      1.5087586    
    515000   511.45222     -82.681609     -84.268259      0             -84.268259      1.5866493    
    516000   505.31035     -84.169037     -85.736633      0             -85.736633      1.5675957    
    517000   532.00499     -83.536926     -85.187335      0             -85.187335      1.650409     
    518000   497.15577     -83.250026     -84.792324      0             -84.792324      1.5422982    
    519000   486.46869     -84.14285      -85.651994      0             -85.651994      1.5091443    
    520000   569.9675      -83.647208     -85.415386      0             -85.415386      1.7681779    
    521000   667.20703     -83.181809     -85.251647      0             -85.251647      2.0698387    
    522000   516.34768     -83.578554     -85.18039       0             -85.18039       1.6018362    
    523000   464.7334      -83.814141     -85.255857      0             -85.255857      1.4417162    
    524000   513.17259     -83.540053     -85.132039      0             -85.132039      1.5919863    
    525000   476.20158     -83.28351      -84.760803      0             -84.760803      1.4772932    
    526000   466.80593     -83.211612     -84.659758      0             -84.659758      1.4481456    
    527000   577.81667     -84.45968      -86.252208      0             -86.252208      1.792528     
    528000   516.19511     -83.847909     -85.449272      0             -85.449272      1.6013629    
    529000   505.94931     -83.346905     -84.916483      0             -84.916483      1.5695779    
    530000   460.74461     -83.962389     -85.391731      0             -85.391731      1.429342     
    531000   527.98692     -84.003415     -85.641359      0             -85.641359      1.637944     
    532000   549.59727     -83.639378     -85.344363      0             -85.344363      1.7049845    
    533000   533.20141     -83.980271     -85.634392      0             -85.634392      1.6541206    
    534000   515.89734     -83.984007     -85.584447      0             -85.584447      1.6004392    
    535000   577.11699     -83.752414     -85.542771      0             -85.542771      1.7903574    
    536000   546.37671     -83.795565     -85.490559      0             -85.490559      1.6949936    
    537000   506.71158     -83.931579     -85.503522      0             -85.503522      1.5719427    
    538000   510.50941     -84.083577     -85.667301      0             -85.667301      1.5837245    
    539000   595.80443     -84.385935     -86.234266      0             -86.234266      1.8483304    
    540000   549.683       -84.272062     -85.977313      0             -85.977313      1.7052505    
    541000   621.62969     -84.28936      -86.217807      0             -86.217807      1.9284466    
    542000   561.42307     -84.096978     -85.838649      0             -85.838649      1.7416711    
    543000   609.37721     -84.022003     -85.91244       0             -85.91244       1.8904365    
    544000   548.1309      -84.237875     -85.93831       0             -85.93831       1.7004355    
    545000   497.34511     -84.134009     -85.676894      0             -85.676894      1.5428856    
    546000   576.17729     -83.974318     -85.76176       0             -85.76176       1.7874422    
    547000   559.03661     -84.307248     -86.041516      0             -86.041516      1.7342677    
    548000   515.98404     -83.963929     -85.564637      0             -85.564637      1.6007081    
    549000   533.11345     -84.249748     -85.903596      0             -85.903596      1.6538477    
    550000   500.71127     -84.301619     -85.854947      0             -85.854947      1.5533283    
    551000   574.96001     -84.632005     -86.415671      0             -86.415671      1.783666     
    552000   556.38769     -84.187033     -85.913083      0             -85.913083      1.7260501    
    553000   529.71398     -84.423447     -86.066749      0             -86.066749      1.6433017    
    554000   544.94823     -84.292313     -85.982876      0             -85.982876      1.6905621    
    555000   557.45793     -84.650979     -86.380349      0             -86.380349      1.7293702    
    556000   553.04361     -84.581596     -86.297272      0             -86.297272      1.7156759    
    557000   577.07327     -84.596349     -86.386571      0             -86.386571      1.7902218    
    558000   568.22886     -84.542053     -86.304838      0             -86.304838      1.7627843    
    559000   540.90786     -84.246503     -85.924531      0             -85.924531      1.6780279    
    560000   616.78479     -84.445813     -86.35923       0             -86.35923       1.9134166    
    561000   573.98241     -84.49899      -86.279623      0             -86.279623      1.7806332    
    562000   535.83437     -84.536992     -86.199281      0             -86.199281      1.6622887    
    563000   573.10018     -84.40277      -86.180666      0             -86.180666      1.7778963    
    564000   580.29431     -84.385812     -86.186026      0             -86.186026      1.8002143    
    565000   538.27255     -84.684082     -86.353935      0             -86.353935      1.6698525    
    566000   585.02395     -84.542854     -86.357741      0             -86.357741      1.8148867    
    567000   587.33003     -84.445093     -86.267133      0             -86.267133      1.8220407    
    568000   571.25085     -84.428781     -86.20094       0             -86.20094       1.7721592    
    569000   566.23851     -84.298687     -86.055296      0             -86.055296      1.7566097    
    570000   545.62621     -84.500417     -86.193082      0             -86.193082      1.6926653    
    571000   578.48108     -84.404231     -86.19882       0             -86.19882       1.7945892    
    572000   610.90746     -84.704514     -86.599697      0             -86.599697      1.8951837    
    573000   553.4288      -84.48759      -86.204461      0             -86.204461      1.7168709    
    574000   590.31743     -84.656264     -86.487572      0             -86.487572      1.8313084    
    575000   568.36575     -84.524646     -86.287855      0             -86.287855      1.763209     
    576000   545.84115     -84.540869     -86.234202      0             -86.234202      1.6933322    
    577000   561.84221     -84.566807     -86.309779      0             -86.309779      1.7429713    
    578000   601.60245     -84.73304      -86.599357      0             -86.599357      1.8663173    
    579000   599.96164     -84.479444     -86.340671      0             -86.340671      1.8612271    
    580000   574.09285     -84.469301     -86.250277      0             -86.250277      1.7809758    
    581000   614.29927     -84.69715      -86.602856      0             -86.602856      1.9057059    
    582000   612.74007     -84.715278     -86.616147      0             -86.616147      1.9008689    
    583000   580.8958      -84.664555     -86.466635      0             -86.466635      1.8020802    
    584000   605.88151     -84.770338     -86.64993       0             -86.64993       1.879592     
    585000   570.8447      -84.701813     -86.472712      0             -86.472712      1.7708993    
    586000   576.47863     -84.812094     -86.600471      0             -86.600471      1.7883771    
    587000   603.6161      -84.646183     -86.518747      0             -86.518747      1.8725641    
    588000   622.94394     -84.6091       -86.541624      0             -86.541624      1.9325238    
    589000   585.92377     -84.541803     -86.359481      0             -86.359481      1.8176782    
    590000   589.61966     -84.867435     -86.696578      0             -86.696578      1.8291438    
    591000   587.49975     -84.735005     -86.557573      0             -86.557573      1.8225673    
    592000   578.3485      -84.606639     -86.400817      0             -86.400817      1.7941779    
    593000   583.90112     -84.826807     -86.63821       0             -86.63821       1.8114034    
    594000   579.52856     -84.762448     -86.560286      0             -86.560286      1.7978387    
    595000   589.40279     -84.581241     -86.409712      0             -86.409712      1.828471     
    596000   597.46899     -84.769072     -86.622567      0             -86.622567      1.8534943    
    597000   603.46475     -84.664719     -86.536813      0             -86.536813      1.8720946    
    598000   580.43744     -84.629872     -86.43053       0             -86.43053       1.8006583    
    599000   602.19403     -84.711276     -86.579428      0             -86.579428      1.8681525    
    600000   591.92809     -84.622207     -86.458512      0             -86.458512      1.836305     
    601000   609.7826      -84.693889     -86.585583      0             -86.585583      1.8916941    
    602000   581.70568     -84.637361     -86.441953      0             -86.441953      1.8045927    
    603000   609.23578     -84.761726     -86.651724      0             -86.651724      1.8899977    
    604000   606.2107      -84.669626     -86.550239      0             -86.550239      1.8806132    
    605000   621.41699     -84.600889     -86.528676      0             -86.528676      1.9277868    
    606000   609.54991     -84.712734     -86.603707      0             -86.603707      1.8909722    
    607000   623.88377     -84.675561     -86.611001      0             -86.611001      1.9354394    
    608000   612.2513      -84.628765     -86.528118      0             -86.528118      1.8993526    
    609000   616.69225     -85.082196     -86.995325      0             -86.995325      1.9131295    
    610000   626.89402     -85.2728       -87.217577      0             -87.217577      1.9447779    
    611000   632.45569     -85.599036     -87.561067      0             -87.561067      1.9620315    
    612000   605.43919     -85.462501     -87.340721      0             -87.340721      1.8782198    
    613000   614.39276     -85.636386     -87.542382      0             -87.542382      1.9059959    
    614000   627.64554     -85.67219      -87.619299      0             -87.619299      1.9471093    
    615000   614.95939     -85.632718     -87.540472      0             -87.540472      1.9077538    
    616000   651.16556     -85.93384      -87.953914      0             -87.953914      2.0200741    
    617000   632.68625     -86.568475     -88.531221      0             -88.531221      1.9627468    
    618000   626.55057     -87.110476     -89.054189      0             -89.054189      1.9437124    
    619000   639.19708     -88.05922      -90.042165      0             -90.042165      1.982945     
    620000   634.06773     -87.384959     -89.351991      0             -89.351991      1.9670325    
    621000   620.61042     -88.547607     -90.472892      0             -90.472892      1.9252846    
    622000   662.6305      -89.667896     -91.723537      0             -91.723537      2.0556411    
    623000   635.01359     -89.750179     -91.720146      0             -91.720146      1.9699668    
    624000   554.69867     -89.694269     -91.415079      0             -91.415079      1.7208103    
    625000   640.36111     -89.244356     -91.230912      0             -91.230912      1.9865561    
    626000   621.0364      -89.276861     -91.203467      0             -91.203467      1.9266061    
    627000   650.05794     -89.445657     -91.462295      0             -91.462295      2.016638     
    628000   614.53767     -89.745293     -91.651738      0             -91.651738      1.9064455    
    629000   648.82992     -89.245671     -91.258499      0             -91.258499      2.0128284    
    630000   682.83817     -89.422112     -91.540442      0             -91.540442      2.1183303    
    631000   686.39744     -90.125255     -92.254627      0             -92.254627      2.129372     
    632000   507.70667     -89.509101     -91.08413       0             -91.08413       1.5750297    
    633000   620.25041     -89.533564     -91.457732      0             -91.457732      1.9241678    
    634000   616.66599     -89.034422     -90.94747       0             -90.94747       1.9130481    
    635000   671.25699     -89.811371     -91.893774      0             -91.893774      2.0824026    
    636000   619.76774     -89.58724      -91.509911      0             -91.509911      1.9226704    
    637000   672.83264     -89.987808     -92.075099      0             -92.075099      2.0872907    
    638000   628.09025     -89.515416     -91.463904      0             -91.463904      1.9484889    
    639000   722.82524     -89.113645     -91.356025      0             -91.356025      2.2423799    
    640000   583.21696     -89.737419     -91.5467        0             -91.5467        1.809281     
    641000   657.97485     -90.159505     -92.200703      0             -92.200703      2.0411982    
    642000   639.10642     -90.452757     -92.43542       0             -92.43542       1.9826637    
    643000   660.77724     -89.847175     -91.897067      0             -91.897067      2.0498919    
    644000   646.74113     -89.445416     -91.451765      0             -91.451765      2.0063485    
    645000   590.3817      -90.102559     -91.934067      0             -91.934067      1.8315078    
    646000   629.1458      -89.675842     -91.627605      0             -91.627605      1.9517635    
    647000   679.0888      -90.420455     -92.527154      0             -92.527154      2.1066988    
    648000   663.61582     -90.01876      -92.077458      0             -92.077458      2.0586979    
    649000   612.44978     -89.519339     -91.419308      0             -91.419308      1.8999683    
    650000   714.64457     -89.619591     -91.836592      0             -91.836592      2.2170015    
    651000   687.93683     -89.918174     -92.052321      0             -92.052321      2.1341475    
    652000   677.32301     -90.527867     -92.629088      0             -92.629088      2.1012209    
    653000   612.73447     -90.327019     -92.227871      0             -92.227871      1.9008515    
    654000   571.66231     -89.607804     -91.38124       0             -91.38124       1.7734357    
    655000   655.87254     -89.65206      -91.686736      0             -91.686736      2.0346763    
    656000   690.00375     -90.205596     -92.346156      0             -92.346156      2.1405596    
    657000   620.85274     -90.186094     -92.11213       0             -92.11213       1.9260364    
    658000   672.20991     -90.16799      -92.253349      0             -92.253349      2.0853588    
    659000   621.35371     -90.21246      -92.140051      0             -92.140051      1.9275905    
    660000   691.34708     -90.201308     -92.346035      0             -92.346035      2.144727     
    661000   604.85251     -90.488521     -92.364921      0             -92.364921      1.8763997    
    662000   679.60092     -90.682346     -92.790634      0             -92.790634      2.1082875    
    663000   716.28361     -90.376644     -92.59873       0             -92.59873       2.2220861    
    664000   646.41674     -90.775068     -92.78041       0             -92.78041       2.0053421    
    665000   636.59844     -90.412597     -92.387481      0             -92.387481      1.9748834    
    666000   674.04758     -90.189972     -92.281032      0             -92.281032      2.0910597    
    667000   718.04008     -89.908744     -92.136279      0             -92.136279      2.2275352    
    668000   692.2462      -90.079072     -92.226589      0             -92.226589      2.1475163    
    669000   689.20525     -90.625536     -92.763619      0             -92.763619      2.1380825    
    670000   701.68919     -90.336146     -92.512957      0             -92.512957      2.1768107    
    671000   702.58674     -90.620226     -92.799821      0             -92.799821      2.1795951    
    672000   710.84372     -90.383167     -92.588377      0             -92.588377      2.2052103    
    673000   654.52755     -90.462978     -92.493482      0             -92.493482      2.0305038    
    674000   686.85915     -90.774379     -92.905183      0             -92.905183      2.1308043    
    675000   667.15177     -90.274477     -92.344145      0             -92.344145      2.0696672    
    676000   661.38015     -90.695141     -92.746903      0             -92.746903      2.0517623    
    677000   655.16106     -90.23135      -92.263819      0             -92.263819      2.0324691    
    678000   677.97069     -90.344023     -92.447254      0             -92.447254      2.1032301    
    679000   712.82266     -90.537815     -92.749164      0             -92.749164      2.2113494    
    680000   731.44622     -90.726209     -92.995333      0             -92.995333      2.2691243    
    681000   672.7015      -90.655285     -92.742169      0             -92.742169      2.0868838    
    682000   699.99515     -90.329463     -92.501018      0             -92.501018      2.1715554    
    683000   704.9009      -90.548526     -92.735301      0             -92.735301      2.1867742    
    684000   700.29755     -90.735022     -92.907516      0             -92.907516      2.1724935    
    685000   698.6405      -91.007037     -93.17439       0             -93.17439       2.1673529    
    686000   659.35841     -90.415975     -92.461465      0             -92.461465      2.0454903    
    687000   671.98248     -90.248419     -92.333072      0             -92.333072      2.0846533    
    688000   744.81623     -90.848475     -93.159077      0             -93.159077      2.3106013    
    689000   667.86321     -90.534784     -92.606658      0             -92.606658      2.0718743    
    690000   672.51781     -90.680631     -92.766945      0             -92.766945      2.086314     
    691000   703.12534     -90.744752     -92.926018      0             -92.926018      2.181266     
    692000   669.6311      -90.583572     -92.66093       0             -92.66093       2.0773587    
    693000   677.42607     -90.491964     -92.593505      0             -92.593505      2.1015406    
    694000   710.19216     -90.660561     -92.86375       0             -92.86375       2.203189     
    695000   703.93439     -90.684624     -92.8684        0             -92.8684        2.1837759    
    696000   658.5908      -90.529611     -92.57272       0             -92.57272       2.043109     
    697000   694.84367     -90.43658      -92.592154      0             -92.592154      2.1555743    
    698000   680.78246     -90.580864     -92.692817      0             -92.692817      2.1119529    
    699000   664.15955     -90.591521     -92.651906      0             -92.651906      2.0603846    
    700000   698.01251     -90.518679     -92.684084      0             -92.684084      2.1654048    
    701000   724.38705     -90.651615     -92.89884       0             -92.89884       2.247225     
    702000   702.99035     -90.809398     -92.990245      0             -92.990245      2.1808472    
    703000   699.42704     -90.766762     -92.936555      0             -92.936555      2.169793     
    704000   670.14986     -90.423956     -92.502924      0             -92.502924      2.078968     
    705000   694.57677     -90.614693     -92.769439      0             -92.769439      2.1547463    
    706000   703.00042     -90.727782     -92.908661      0             -92.908661      2.1808785    
    707000   723.66982     -90.710705     -92.955705      0             -92.955705      2.245        
    708000   745.23619     -90.847707     -93.159611      0             -93.159611      2.3119041    
    709000   679.10231     -90.935095     -93.041836      0             -93.041836      2.1067407    
    710000   690.37555     -90.736321     -92.878034      0             -92.878034      2.141713     
    711000   722.93582     -90.741511     -92.984234      0             -92.984234      2.2427229    
    712000   695.69266     -90.99619      -93.154398      0             -93.154398      2.158208     
    713000   723.00177     -90.962403     -93.20533       0             -93.20533       2.2429275    
    714000   707.35415     -90.738361     -92.932746      0             -92.932746      2.1943848    
    715000   687.94762     -90.89665      -93.030831      0             -93.030831      2.134181     
    716000   734.08951     -90.919069     -93.196393      0             -93.196393      2.2773244    
    717000   745.86037     -90.899844     -93.213684      0             -93.213684      2.3138405    
    718000   710.85911     -90.854309     -93.059567      0             -93.059567      2.205258     
    719000   709.32853     -90.732173     -92.932683      0             -92.932683      2.2005098    
    720000   725.67209     -90.965947     -93.217159      0             -93.217159      2.2512115    
    721000   697.94766     -90.868733     -93.033937      0             -93.033937      2.1652036    
    722000   737.62441     -90.995856     -93.284147      0             -93.284147      2.2882905    
    723000   773.8064      -90.754473     -93.155009      0             -93.155009      2.4005359    
    724000   732.74444     -90.899165     -93.172316      0             -93.172316      2.2731517    
    725000   747.48765     -90.95771      -93.276599      0             -93.276599      2.3188887    
    726000   722.04819     -90.988529     -93.228498      0             -93.228498      2.2399693    
    727000   713.63369     -90.95116      -93.165025      0             -93.165025      2.2138655    
    728000   747.89658     -91.102679     -93.422836      0             -93.422836      2.3201573    
    729000   750.25166     -90.930114     -93.257577      0             -93.257577      2.3274633    
    730000   705.14629     -90.832806     -93.020341      0             -93.020341      2.1875355    
    731000   735.18922     -90.646916     -92.927651      0             -92.927651      2.2807359    
    732000   716.17396     -90.897362     -93.119108      0             -93.119108      2.221746     
    733000   763.63393     -90.785162     -93.154141      0             -93.154141      2.3689784    
    734000   745.87813     -90.934667     -93.248562      0             -93.248562      2.3138956    
    735000   717.18542     -90.884141     -93.109025      0             -93.109025      2.2248838    
    736000   770.69921     -91.644656     -94.035553      0             -94.035553      2.3908966    
    737000   718.16737     -94.783483     -97.011413      0             -97.011413      2.22793      
    738000   804.97528     -94.303859     -96.801089      0             -96.801089      2.4972293    
    739000   787.12261     -95.106956     -97.548802      0             -97.548802      2.441846     
    740000   725.85154     -95.72736      -97.979128      0             -97.979128      2.2517682    
    741000   716.05501     -95.96703      -98.188407      0             -98.188407      2.221377     
    742000   751.54903     -95.692444     -98.023932      0             -98.023932      2.3314881    
    743000   791.90737     -95.851578     -98.308267      0             -98.308267      2.4566895    
    744000   669.53967     -94.643925     -96.721         0             -96.721         2.0770751    
    745000   683.22016     -96.179515     -98.29903       0             -98.29903       2.1195153    
    746000   812.91539     -96.098247     -98.620109      0             -98.620109      2.5218615    
    747000   778.25222     -96.875737     -99.290064      0             -99.290064      2.4143279    
    748000   763.75972     -96.923419     -99.292788      0             -99.292788      2.3693686    
    749000   831.32643     -96.958715     -99.537692      0             -99.537692      2.578977     
    750000   717.5292      -97.953474     -100.17942      0             -100.17942      2.2259503    
    751000   770.5246      -97.901112     -100.29147      0             -100.29147      2.3903549    
    752000   757.94653     -97.165501     -99.516836      0             -99.516836      2.3513347    
[...]
   9919000   181.36254     -169.67564     -170.23827      0             -170.23827      0.56263075   
   9920000   182.23158     -169.65127     -170.2166       0             -170.2166       0.56532673   
   9921000   179.41959     -169.66509     -170.2217       0             -170.2217       0.55660325   
   9922000   178.72825     -169.67359     -170.22805      0             -170.22805      0.55445855   
   9923000   176.77434     -169.66974     -170.21814      0             -170.21814      0.54839704   
   9924000   176.52798     -169.68909     -170.23672      0             -170.23672      0.54763279   
   9925000   174.84652     -169.67233     -170.21474      0             -170.21474      0.54241648   
   9926000   175.09368     -169.69179     -170.23497      0             -170.23497      0.54318324   
   9927000   172.11656     -169.70377     -170.23772      0             -170.23772      0.53394749   
   9928000   175.10413     -169.67449     -170.2177       0             -170.2177       0.54321564   
   9929000   169.60037     -169.6979      -170.22404      0             -170.22404      0.52614164   
   9930000   169.28996     -169.69801     -170.22319      0             -170.22319      0.52517866   
   9931000   170.41833     -169.7113      -170.23998      0             -170.23998      0.52867914   
   9932000   168.01834     -169.70726     -170.2285       0             -170.2285       0.52123381   
   9933000   166.80876     -169.69364     -170.21112      0             -170.21112      0.5174814    
   9934000   165.63389     -169.71276     -170.22659      0             -170.22659      0.51383666   
   9935000   165.18498     -169.72552     -170.23796      0             -170.23796      0.51244402   
   9936000   164.03765     -169.71176     -170.22064      0             -170.22064      0.50888474   
   9937000   163.72476     -169.73215     -170.24006      0             -170.24006      0.50791408   
   9938000   162.89172     -169.71917     -170.2245       0             -170.2245       0.50532977   
   9939000   161.16136     -169.73446     -170.23442      0             -170.23442      0.49996177   
   9940000   160.11872     -169.74143     -170.23816      0             -170.23816      0.49672726   
   9941000   157.09989     -169.73951     -170.22687      0             -170.22687      0.48736212   
   9942000   159.24342     -169.73176     -170.22577      0             -170.22577      0.49401185   
   9943000   156.07258     -169.7638      -170.24798      0             -170.24798      0.48417515   
   9944000   159.63508     -169.75192     -170.24715      0             -170.24715      0.49522688   
   9945000   153.97319     -169.75585     -170.23352      0             -170.23352      0.47766233   
   9946000   154.73667     -169.75871     -170.23874      0             -170.23874      0.48003083   
   9947000   150.61241     -169.76122     -170.22846      0             -170.22846      0.46723638   
   9948000   152.81174     -169.77377     -170.24782      0             -170.24782      0.47405921   
   9949000   149.67864     -169.7519      -170.21624      0             -170.21624      0.46433959   
   9950000   151.48587     -169.78204     -170.25199      0             -170.25199      0.46994606   
   9951000   150.53603     -169.77334     -170.24034      0             -170.24034      0.46699943   
   9952000   145.74121     -169.78177     -170.2339       0             -170.2339       0.45212472   
   9953000   149.96603     -169.78863     -170.25386      0             -170.25386      0.46523114   
   9954000   146.09811     -169.77719     -170.23043      0             -170.23043      0.45323191   
   9955000   143.69528     -169.79301     -170.23879      0             -170.23879      0.44577776   
   9956000   144.71459     -169.80491     -170.25385      0             -170.25385      0.44893989   
   9957000   144.11219     -169.78811     -170.23519      0             -170.23519      0.44707109   
   9958000   141.53515     -169.81032     -170.2494       0             -170.2494       0.43907649   
   9959000   142.1261      -169.80272     -170.24363      0             -170.24363      0.44090977   
   9960000   138.97034     -169.81957     -170.25069      0             -170.25069      0.43111982   
   9961000   139.85532     -169.79927     -170.23313      0             -170.23313      0.43386525   
   9962000   139.08749     -169.82884     -170.26033      0             -170.26033      0.43148325   
   9963000   136.22409     -169.81502     -170.23762      0             -170.23762      0.42260031   
   9964000   137.07518     -169.81942     -170.24466      0             -170.24466      0.42524059   
   9965000   133.60505     -169.83617     -170.25065      0             -170.25065      0.41447541   
   9966000   135.41062     -169.83258     -170.25266      0             -170.25266      0.42007671   
   9967000   132.74548     -169.84098     -170.25279      0             -170.25279      0.4118088    
   9968000   133.41604     -169.82845     -170.24234      0             -170.24234      0.41388904   
   9969000   129.30368     -169.83552     -170.23665      0             -170.23665      0.40113148   
   9970000   130.89882     -169.85301     -170.25909      0             -170.25909      0.40608002   
   9971000   127.91833     -169.84406     -170.24089      0             -170.24089      0.3968338    
   9972000   129.06025     -169.84979     -170.25017      0             -170.25017      0.40037632   
   9973000   126.74044     -169.8499      -170.24308      0             -170.24308      0.3931797    
   9974000   126.97422     -169.85318     -170.24709      0             -170.24709      0.39390494   
   9975000   124.83008     -169.86202     -170.24928      0             -170.24928      0.3872533    
   9976000   122.38551     -169.86075     -170.24042      0             -170.24042      0.37966964   
   9977000   122.49598     -169.86447     -170.24448      0             -170.24448      0.38001236   
   9978000   122.18245     -169.88016     -170.2592       0             -170.2592       0.37903972   
   9979000   121.41826     -169.86567     -170.24234      0             -170.24234      0.376669     
   9980000   121.54476     -169.88263     -170.25969      0             -170.25969      0.37706145   
   9981000   117.16442     -169.86883     -170.23231      0             -170.23231      0.36347257   
   9982000   118.40648     -169.88989     -170.25722      0             -170.25722      0.36732573   
   9983000   116.5913      -169.88719     -170.24889      0             -170.24889      0.36169461   
   9984000   116.69812     -169.89565     -170.25767      0             -170.25767      0.36202599   
   9985000   115.80098     -169.89864     -170.25788      0             -170.25788      0.35924284   
   9986000   114.28746     -169.89469     -170.24924      0             -170.24924      0.35454753   
   9987000   112.70949     -169.90893     -170.25858      0             -170.25858      0.34965227   
   9988000   112.64006     -169.89788     -170.24732      0             -170.24732      0.34943688   
   9989000   110.32275     -169.91618     -170.25842      0             -170.25842      0.34224804   
   9990000   109.25615     -169.91091     -170.24985      0             -170.24985      0.33893919   
   9991000   109.58825     -169.91523     -170.25519      0             -170.25519      0.33996942   
   9992000   108.32429     -169.92411     -170.26016      0             -170.26016      0.33604832   
   9993000   109.23116     -169.91756     -170.25642      0             -170.25642      0.33886166   
   9994000   104.04828     -169.92989     -170.25268      0             -170.25268      0.32278309   
   9995000   105.04965     -169.93489     -170.26078      0             -170.26078      0.32588961   
   9996000   103.55918     -169.93502     -170.25628      0             -170.25628      0.32126579   
   9997000   104.16604     -169.93356     -170.25671      0             -170.25671      0.32314841   
   9998000   102.23437     -169.9406      -170.25776      0             -170.25776      0.31715592   
   9999000   100.33296     -169.94246     -170.25371      0             -170.25371      0.31125727   
  10000000   100.77343     -169.94375     -170.25637      0             -170.25637      0.31262373   
  10001000   100.06521     -169.95284     -170.26327      0             -170.26327      0.31042664   
  10002000   97.93526      -169.95126     -170.25508      0             -170.25508      0.30381902   
  10003000   96.409863     -169.96038     -170.25946      0             -170.25946      0.29908687   
  10004000   94.632927     -169.96123     -170.25481      0             -170.25481      0.29357438   
  10005000   95.373795     -169.96057     -170.25644      0             -170.25644      0.29587273   
  10006000   95.161769     -169.97329     -170.2685       0             -170.2685       0.29521498   
  10007000   94.000944     -169.96928     -170.26089      0             -170.26089      0.29161382   
  10008000   91.513716     -169.96729     -170.25119      0             -170.25119      0.28389783   
  10009000   90.064742     -169.98107     -170.26047      0             -170.26047      0.27940276   
  10010000   90.039367     -169.97775     -170.25707      0             -170.25707      0.27932404   
  10011000   89.412469     -169.9878      -170.26518      0             -170.26518      0.27737925   
  10012000   89.690721     -169.986       -170.26424      0             -170.26424      0.27824246   
  10013000   85.929577     -169.9939      -170.26047      0             -170.26047      0.26657447   
  10014000   86.649995     -169.99949     -170.2683       0             -170.2683       0.26880938   
  10015000   85.821527     -169.99345     -170.25969      0             -170.25969      0.26623927   
  10016000   83.956055     -170.0047      -170.26515      0             -170.26515      0.26045212   
  10017000   84.401035     -170.01013     -170.27196      0             -170.27196      0.26183256   
  10018000   81.099335     -170.00296     -170.25455      0             -170.25455      0.25158988   
  10019000   81.182184     -170.0181      -170.26995      0             -170.26995      0.2518469    
  10020000   79.101361     -170.01219     -170.25758      0             -170.25758      0.24539168   
  10021000   79.368144     -170.01453     -170.26075      0             -170.26075      0.24621931   
  10022000   79.074677     -170.02354     -170.26884      0             -170.26884      0.2453089    
  10023000   77.096738     -170.03351     -170.27269      0             -170.27269      0.23917285   
  10024000   76.188228     -170.02192     -170.25827      0             -170.25827      0.23635443   
  10025000   75.05759      -170.03077     -170.26362      0             -170.26362      0.23284692   
  10026000   75.013597     -170.04238     -170.27509      0             -170.27509      0.23271044   
  10027000   72.255699     -170.03923     -170.26339      0             -170.26339      0.22415477   
  10028000   72.557497     -170.04456     -170.26965      0             -170.26965      0.22509102   
  10029000   70.556732     -170.05027     -170.26916      0             -170.26916      0.21888416   
  10030000   70.045064     -170.04848     -170.26578      0             -170.26578      0.21729684   
  10031000   70.329313     -170.05201     -170.27019      0             -170.27019      0.21817865   
  10032000   67.394134     -170.05666     -170.26574      0             -170.26574      0.20907301   
  10033000   67.505344     -170.06246     -170.27188      0             -170.27188      0.20941801   
  10034000   65.122199     -170.0635      -170.26552      0             -170.26552      0.20202492   
  10035000   64.913228     -170.06657     -170.26794      0             -170.26794      0.20137664   
  10036000   65.33469      -170.06856     -170.27124      0             -170.27124      0.20268412   
  10037000   62.449739     -170.08364     -170.27738      0             -170.27738      0.1937343    
  10038000   63.177088     -170.07608     -170.27207      0             -170.27207      0.19599071   
  10039000   60.689814     -170.08192     -170.27019      0             -170.27019      0.18827458   
  10040000   59.70974      -170.08824     -170.27347      0             -170.27347      0.18523415   
  10041000   60.087098     -170.09068     -170.27709      0             -170.27709      0.18640481   
  10042000   56.925524     -170.09417     -170.27077      0             -170.27077      0.17659683   
  10043000   57.659368     -170.09433     -170.2732       0             -170.2732       0.1788734    
  10044000   55.611322     -170.10544     -170.27796      0             -170.27796      0.17251986   
  10045000   55.217436     -170.10404     -170.27534      0             -170.27534      0.17129793   
  10046000   54.60154      -170.10499     -170.27438      0             -170.27438      0.16938727   
  10047000   52.726619     -170.11627     -170.27984      0             -170.27984      0.16357081   
  10048000   52.560003     -170.1128      -170.27586      0             -170.27586      0.16305393   
  10049000   49.935465     -170.12066     -170.27558      0             -170.27558      0.15491197   
  10050000   50.408745     -170.12037     -170.27675      0             -170.27675      0.1563802    
  10051000   49.04459      -170.12177     -170.27392      0             -170.27392      0.15214826   
  10052000   47.805838     -170.12935     -170.27765      0             -170.27765      0.14830535   
  10053000   47.69746      -170.12864     -170.2766       0             -170.2766       0.14796913   
  10054000   46.157813     -170.13606     -170.27925      0             -170.27925      0.14319278   
  10055000   44.68         -170.14028     -170.27889      0             -170.27889      0.13860824   
  10056000   44.466415     -170.13769     -170.27563      0             -170.27563      0.13794564   
  10057000   42.984254     -170.14787     -170.28121      0             -170.28121      0.13334762   
  10058000   41.708117     -170.14801     -170.2774       0             -170.2774       0.12938873   
  10059000   40.658744     -170.15402     -170.28016      0             -170.28016      0.12613333   
  10060000   41.006292     -170.15531     -170.28252      0             -170.28252      0.1272115    
  10061000   38.791632     -170.15772     -170.27806      0             -170.27806      0.12034109   
  10062000   38.861631     -170.16698     -170.28754      0             -170.28754      0.12055824   
  10063000   36.538802     -170.16709     -170.28044      0             -170.28044      0.11335226   
  10064000   35.961052     -170.16823     -170.27979      0             -170.27979      0.11155994   
  10065000   35.07624      -170.1754      -170.28421      0             -170.28421      0.10881504   
  10066000   34.106887     -170.17324     -170.27904      0             -170.27904      0.10580787   
  10067000   33.634605     -170.18099     -170.28533      0             -170.28533      0.10434274   
  10068000   31.321465     -170.18339     -170.28056      0             -170.28056      0.09716681   
  10069000   31.466295     -170.19135     -170.28897      0             -170.28897      0.097616109  
  10070000   29.922292     -170.18784     -170.28067      0             -170.28067      0.092826234  
  10071000   29.268654     -170.19684     -170.28763      0             -170.28763      0.090798492  
  10072000   28.58789      -170.19825     -170.28693      0             -170.28693      0.088686595  
  10073000   27.484904     -170.20091     -170.28617      0             -170.28617      0.085264866  
  10074000   25.959911     -170.20602     -170.28655      0             -170.28655      0.080533965  
  10075000   25.293378     -170.20904     -170.28751      0             -170.28751      0.078466216  
  10076000   23.860754     -170.21203     -170.28605      0             -170.28605      0.074021867  
  10077000   23.029051     -170.21443     -170.28587      0             -170.28587      0.071441722  
  10078000   21.932534     -170.22008     -170.28812      0             -170.28812      0.068040061  
  10079000   20.917091     -170.22103     -170.28592      0             -170.28592      0.064889908  
  10080000   20.386096     -170.22629     -170.28953      0             -170.28953      0.063242633  
  10081000   18.98783      -170.23214     -170.29105      0             -170.29105      0.058904871  
  10082000   18.480216     -170.23333     -170.29066      0             -170.29066      0.05733013   
  10083000   17.117207     -170.23817     -170.29127      0             -170.29127      0.053101744  
  10084000   16.462698     -170.23991     -170.29098      0             -170.29098      0.051071296  
  10085000   15.187674     -170.24498     -170.2921       0             -170.2921       0.047115861  
  10086000   14.029176     -170.24824     -170.29176      0             -170.29176      0.043521921  
  10087000   12.797511     -170.25205     -170.29175      0             -170.29175      0.039700995  
  10088000   12.177853     -170.25477     -170.29255      0             -170.29255      0.037778664  
  10089000   10.67014      -170.26002     -170.29312      0             -170.29312      0.033101374  
  10090000   10.362622     -170.26283     -170.29497      0             -170.29497      0.032147376  
  10091000   9.0863709     -170.26653     -170.29472      0             -170.29472      0.028188135  
  10092000   8.2005375     -170.27152     -170.29696      0             -170.29696      0.025440064  
  10093000   7.4034334     -170.27288     -170.29585      0             -170.29585      0.022967253  
  10094000   6.0928322     -170.27872     -170.29762      0             -170.29762      0.018901449  
  10095000   5.0760216     -170.28136     -170.29711      0             -170.29711      0.015747055  
  10096000   4.1604055     -170.28578     -170.29868      0             -170.29868      0.012906591  
  10097000   3.1122216     -170.28905     -170.2987       0             -170.2987       0.0096548692 
  10098000   2.0854446     -170.29394     -170.3004       0             -170.3004       0.006469557  
  10099000   1.1524492     -170.29814     -170.30172      0             -170.30172      0.003575178  
  10100000   0.13467144    -170.30252     -170.30294      0             -170.30294      0.00041778361
Loop time of 241.132 on 1 procs for 5000000 steps with 25 atoms

Performance: 179.155 ns/day, 0.134 hours/ns, 20735.573 timesteps/s, 518.389 katom-step/s
87.2% CPU use with 1 MPI tasks x 1 OpenMP threads

MPI task timing breakdown:
Section |  min time  |  avg time  |  max time  |%varavg| %total
---------------------------------------------------------------
Pair    | 175.62     | 175.62     | 175.62     |   0.0 | 72.83
Neigh   | 0.57332    | 0.57332    | 0.57332    |   0.0 |  0.24
Comm    | 4.1307     | 4.1307     | 4.1307     |   0.0 |  1.71
Output  | 30.121     | 30.121     | 30.121     |   0.0 | 12.49
Modify  | 26.787     | 26.787     | 26.787     |   0.0 | 11.11
Other   |            | 3.903      |            |       |  1.62

Nlocal:             25 ave          25 max          25 min
Histogram: 1 0 0 0 0 0 0 0 0 0
Nghost:             42 ave          42 max          42 min
Histogram: 1 0 0 0 0 0 0 0 0 0
Neighs:            144 ave         144 max         144 min
Histogram: 1 0 0 0 0 0 0 0 0 0

Total # of neighbors = 144
Ave neighs/atom = 5.76
Neighbor list builds = 28973
Dangerous builds = 0
write_restart ./endconf/endconf*3.restart
System init for write_restart ...
WARNING: Dump 1 includes no atom IDs and is not sorted by ID. This may complicate post-processing tasks or visualization (src/dump.cpp:219)



Total wall time: 0:08:51
