LAMMPS (7 Feb 2024 - Update 1)
OMP_NUM_THREADS environment is not set. Defaulting to 1 thread. (src/comm.cpp:98)
  using 1 OpenMP thread(s) per MPI task
# EAM potentiel for W system
# .....
#-------------Define units and atom style------------

units		metal
boundary p p p
atom_style	charge

############################################
#              CLI Variables               #
############################################
variable 		seed index 200093          #
variable 		N index 25                 #
variable 		iter index 5000000         #
variable 		iterther index 100000      #
variable 		iexport index 10000        #
variable 		tempchauf index 5000       #
variable 		Tdamp index 0.01           #
variable 		timestep index 0.0001      #
############################################
############################################


#-------------Simulation box--------------

lattice   sc 1.0
Lattice spacing in x,y,z = 1 1 1

region     bigbox block 0 40 0 40 0 40
create_box     2 bigbox
Created orthogonal box = (0 0 0) to (40 40 40)
  1 by 1 by 1 MPI processor grid

region          smallbox block 5 35 5 35 5 35 units box

#------------create atoms randomly in the small box--------

create_atoms    1 random ${N} ${seed} smallbox
create_atoms    1 random 25 ${seed} smallbox
create_atoms    1 random 25 200093 smallbox
Created 25 atoms
  using lattice units in orthogonal box = (0 0 0) to (40 40 40)
  create_atoms CPU = 0.000 seconds

mass * 183.84

#------------Define the interatomic potential -------------

pair_style eam/fs
pair_coeff * * ./w.eam2.fs W W

neighbor	0.3 bin
neigh_modify    delay 0 every 1 check yes

#--------------set initial velocity to all atoms------

velocity   all create  0.001 1563967 rot yes dist gaussian

# ---------- Run MD Heating ---------------------

fix              2 all nve
fix              3 all temp/berendsen  0.0 ${tempchauf} ${Tdamp}
fix              3 all temp/berendsen  0.0 5000 ${Tdamp}
fix              3 all temp/berendsen  0.0 5000 0.01
fix              4 all momentum 1 linear 1 1 1 angular rescale


timestep	${timestep}
timestep	0.0001


thermo 1000
thermo_style custom step  temp etotal epair ebond pe ke

dump 		1 all cfg 1000 ./dump/dump.tensile_*.cfg mass type xs ys zs vx vy vz mass q
dump		2 all atom 1000 tmp.dump
dump_modify     1 element W W

run		${iter}
run		5000000
Neighbor list info ...
  update: every = 1 steps, delay = 0 steps, check = yes
  max neighbors/atom: 2000, page size: 100000
  master list distance cutoff = 5.8
  ghost atom cutoff = 5.8
  binsize = 2.9, bins = 14 14 14
  1 neighbor lists, perpetual/occasional/extra = 1 0 0
  (1) pair eam/fs, perpetual
      attributes: half, newton on
      pair build: half/bin/atomonly/newton
      stencil: half/bin/3d
      bin: standard
WARNING: Dump 1 includes no atom IDs and is not sorted by ID. This may complicate post-processing tasks or visualization (src/dump.cpp:219)
Per MPI rank memory allocation (min/avg/max) = 3.458 | 3.458 | 3.458 Mbytes
   Step          Temp          TotEng         E_pair         E_bond         PotEng         KinEng    
         0   0.001         -27.34566      -27.345663      0             -27.345663      3.1022435e-06
      1000   204.09017     -38.531269     -39.164407      0             -39.164407      0.6331374    
      2000   211.0555      -44.397511     -45.052256      0             -45.052256      0.65474554   
      3000   69.925995     -49.606693     -49.823621      0             -49.823621      0.21692746   
      4000   13.024065     -50.555433     -50.595837      0             -50.595837      0.04040382   
      5000   9.1174597     -50.77977      -50.808054      0             -50.808054      0.02828458   
      6000   7.6228852     -50.799681     -50.823329      0             -50.823329      0.023648046  
      7000   8.0992314     -50.811858     -50.836984      0             -50.836984      0.025125788  
      8000   8.0573356     -50.813201     -50.838197      0             -50.838197      0.024995817  
      9000   8.6138882     -50.811501     -50.838223      0             -50.838223      0.026722379  
     10000   9.6010457     -50.809214     -50.838999      0             -50.838999      0.029784781  
     11000   11.054939     -50.807344     -50.84164       0             -50.84164       0.034295113  
     12000   12.365612     -50.806817     -50.845178      0             -50.845178      0.03836114   
     13000   13.187306     -50.807432     -50.848343      0             -50.848343      0.040910233  
     14000   13.75083      -50.809731     -50.852389      0             -50.852389      0.042658424  
     15000   14.50169      -50.811384     -50.856372      0             -50.856372      0.044987772  
     16000   15.964266     -50.812311     -50.861836      0             -50.861836      0.049525039  
     17000   18.466061     -50.828358     -50.885645      0             -50.885645      0.057286217  
     18000   23.703803     -50.920014     -50.993549      0             -50.993549      0.073534969  
     19000   33.745709     -51.229084     -51.333771      0             -51.333771      0.1046874    
     20000   37.055262     -51.767727     -51.882682      0             -51.882682      0.11495444   
     21000   25.527089     -52.251082     -52.330274      0             -52.330274      0.079191245  
     22000   26.337198     -52.071224     -52.152929      0             -52.152929      0.0817044    
     23000   13.42042      -52.204203     -52.245837      0             -52.245837      0.041633409  
     24000   24.790355     -52.05247      -52.129376      0             -52.129376      0.076905719  
     25000   20.392849     -52.208837     -52.272101      0             -52.272101      0.063263584  
     26000   48.023074     -52.044819     -52.193798      0             -52.193798      0.14897927   
     27000   45.813789     -52.162162     -52.304287      0             -52.304287      0.14212553   
     28000   43.579082     -52.125845     -52.261038      0             -52.261038      0.13519292   
     29000   38.610473     -52.190858     -52.310637      0             -52.310637      0.11977909   
     30000   27.100463     -52.206218     -52.29029       0             -52.29029       0.084072235  
     31000   35.046443     -52.17432      -52.283043      0             -52.283043      0.1087226    
     32000   37.673712     -52.192324     -52.309197      0             -52.309197      0.11687303   
     33000   29.879933     -52.184508     -52.277203      0             -52.277203      0.092694829  
     34000   38.57412      -52.200503     -52.320169      0             -52.320169      0.11966631   
     35000   32.254699     -52.179673     -52.279735      0             -52.279735      0.10006193   
     36000   34.473126     -52.202804     -52.309748      0             -52.309748      0.10694403   
     37000   37.964543     -52.179371     -52.297146      0             -52.297146      0.11777526   
     38000   35.481432     -52.183615     -52.293687      0             -52.293687      0.11007204   
     39000   39.574208     -52.189514     -52.312283      0             -52.312283      0.12276883   
     40000   42.158528     -52.191058     -52.321844      0             -52.321844      0.13078602   
     41000   42.619425     -52.183585     -52.315801      0             -52.315801      0.13221583   
     42000   37.901263     -52.189781     -52.30736       0             -52.30736       0.11757894   
     43000   44.154509     -52.184926     -52.321904      0             -52.321904      0.13697804   
     44000   43.562321     -52.169679     -52.304819      0             -52.304819      0.13514093   
     45000   44.896369     -52.176819     -52.316098      0             -52.316098      0.13927947   
     46000   47.884789     -52.176601     -52.325152      0             -52.325152      0.14855027   
     47000   45.469036     -52.175041     -52.316097      0             -52.316097      0.14105602   
     48000   47.560706     -52.168805     -52.31635       0             -52.31635       0.14754489   
     49000   47.661656     -52.163043     -52.310901      0             -52.310901      0.14785806   
     50000   51.903841     -52.162188     -52.323206      0             -52.323206      0.16101835   
     51000   51.973318     -52.156407     -52.317641      0             -52.317641      0.16123389   
     52000   49.498776     -52.162194     -52.315751      0             -52.315751      0.15355725   
     53000   53.272117     -52.15819      -52.323453      0             -52.323453      0.16526308   
     54000   54.127395     -52.146118     -52.314034      0             -52.314034      0.16791636   
     55000   55.382017     -52.144938     -52.316746      0             -52.316746      0.1718085    
     56000   55.701824     -52.146773     -52.319574      0             -52.319574      0.17280062   
     57000   55.773452     -52.148982     -52.322005      0             -52.322005      0.17302283   
     58000   59.463305     -52.140679     -52.325149      0             -52.325149      0.18446965   
     59000   58.665448     -52.129587     -52.311582      0             -52.311582      0.1819945    
     60000   59.009663     -52.135244     -52.318306      0             -52.318306      0.18306234   
     61000   61.584867     -52.136298     -52.327349      0             -52.327349      0.19105125   
     62000   61.798342     -52.131273     -52.322986      0             -52.322986      0.1917135    
     63000   63.37095      -52.123533     -52.320125      0             -52.320125      0.19659212   
     64000   63.603651     -52.117886     -52.3152        0             -52.3152        0.19731401   
     65000   63.805925     -52.122747     -52.320688      0             -52.320688      0.19794152   
     66000   67.148416     -52.121632     -52.329943      0             -52.329943      0.20831074   
     67000   67.027687     -52.111342     -52.319278      0             -52.319278      0.2079362    
     68000   67.632121     -52.107684     -52.317495      0             -52.317495      0.20981131   
     69000   68.937403     -52.106943     -52.320803      0             -52.320803      0.21386061   
     70000   69.383265     -52.10799      -52.323234      0             -52.323234      0.21524378   
     71000   71.639828     -52.104756     -52.327001      0             -52.327001      0.22224419   
     72000   72.400275     -52.094578     -52.319182      0             -52.319182      0.22460328   
     73000   71.802997     -52.093543     -52.316294      0             -52.316294      0.22275038   
     74000   74.290517     -52.094849     -52.325316      0             -52.325316      0.23046727   
     75000   74.571584     -52.091389     -52.322728      0             -52.322728      0.23133921   
     76000   75.863728     -52.086566     -52.321914      0             -52.321914      0.23534775   
     77000   77.541025     -52.080017     -52.320568      0             -52.320568      0.24055114   
     78000   77.224203     -52.078918     -52.318486      0             -52.318486      0.23956828   
     79000   78.815932     -52.081151     -52.325658      0             -52.325658      0.24450621   
     80000   80.496366     -52.07334      -52.32306       0             -52.32306       0.24971933   
     81000   80.385822     -52.068991     -52.318367      0             -52.318367      0.24937639   
     82000   82.48085      -52.06726      -52.323135      0             -52.323135      0.25587568   
     83000   82.636965     -52.065058     -52.321418      0             -52.321418      0.25635999   
     84000   83.283534     -52.063401     -52.321767      0             -52.321767      0.2583658    
     85000   85.481108     -52.057599     -52.322782      0             -52.322782      0.26518321   
     86000   85.631586     -52.052258     -52.317908      0             -52.317908      0.26565003   
     87000   86.639243     -52.053814     -52.32259       0             -52.32259       0.26877603   
     88000   87.965091     -52.049073     -52.321962      0             -52.321962      0.27288913   
     89000   88.310859     -52.045179     -52.319141      0             -52.319141      0.27396179   
     90000   90.562715     -52.041854     -52.322801      0             -52.322801      0.28094759   
     91000   91.154096     -52.038524     -52.321306      0             -52.321306      0.2827822    
     92000   90.942021     -52.037475     -52.3196        0             -52.3196        0.28212429   
     93000   93.326043     -52.033811     -52.323332      0             -52.323332      0.28952011   
     94000   93.877638     -52.027713     -52.318945      0             -52.318945      0.29123129   
     95000   95.040681     -52.02767      -52.322509      0             -52.322509      0.29483933   
     96000   95.897966     -52.023607     -52.321106      0             -52.321106      0.29749884   
     97000   95.799287     -52.020642     -52.317834      0             -52.317834      0.29719271   
     98000   98.060823     -52.017588     -52.321796      0             -52.321796      0.30420855   
     99000   99.653795     -52.013134     -52.322285      0             -52.322285      0.30915033   
    100000   99.392129     -52.012047     -52.320385      0             -52.320385      0.30833858   
    101000   100.70387     -52.007885     -52.320293      0             -52.320293      0.31240794   
    102000   101.02427     -52.002782     -52.316184      0             -52.316184      0.3134019    
    103000   103.63387     -52.003043     -52.32454       0             -52.32454       0.32149749   
    104000   105.02994     -51.999351     -52.32518       0             -52.32518       0.32582845   
    105000   103.93547     -51.990159     -52.312592      0             -52.312592      0.32243313   
    106000   104.86917     -51.982847     -52.308177      0             -52.308177      0.32532971   
    107000   107.32569     -51.981856     -52.314807      0             -52.314807      0.33295042   
    108000   108.4124      -51.988124     -52.324446      0             -52.324446      0.33632165   
    109000   109.97364     -51.983948     -52.325113      0             -52.325113      0.341165     
    110000   108.36852     -51.977149     -52.313335      0             -52.313335      0.33618554   
    111000   109.68713     -51.975813     -52.316089      0             -52.316089      0.3402762    
    112000   112.82928     -51.975811     -52.325835      0             -52.325835      0.35002391   
    113000   113.75844     -51.973851     -52.326758      0             -52.326758      0.35290639   
    114000   113.85405     -51.968487     -52.32169       0             -52.32169       0.35320299   
    115000   113.84179     -51.959421     -52.312586      0             -52.312586      0.35316496   
    116000   114.90028     -51.96099      -52.317438      0             -52.317438      0.35644865   
    117000   118.32573     -51.962495     -52.32957       0             -52.32957       0.36707524   
    118000   118.6906      -51.957636     -52.325843      0             -52.325843      0.36820714   
    119000   118.41848     -51.950036     -52.317399      0             -52.317399      0.36736297   
    120000   119.35082     -51.944335     -52.314591      0             -52.314591      0.37025529   
    121000   120.25825     -51.946431     -52.319501      0             -52.319501      0.37307039   
    122000   123.13495     -51.949832     -52.331827      0             -52.331827      0.38199461   
    123000   123.31567     -51.941687     -52.324242      0             -52.324242      0.38255524   
    124000   122.93337     -51.934165     -52.315534      0             -52.315534      0.38136925   
    125000   124.86684     -51.930609     -52.317976      0             -52.317976      0.38736735   
    126000   125.92876     -51.932201     -52.322863      0             -52.322863      0.39066167   
    127000   126.55646     -51.934436     -52.327045      0             -52.327045      0.39260896   
    128000   128.18946     -51.92601      -52.323685      0             -52.323685      0.39767491   
    129000   128.46875     -51.916722     -52.315263      0             -52.315263      0.39854135   
    130000   130.38947     -51.916546     -52.321046      0             -52.321046      0.4044999    
    131000   131.32872     -51.918317     -52.325731      0             -52.325731      0.40741366   
    132000   131.26234     -51.916481     -52.323689      0             -52.323689      0.40720775   
    133000   132.6795      -51.908399     -52.320003      0             -52.320003      0.41160411   
    134000   133.84918     -51.901455     -52.316688      0             -52.316688      0.41523276   
    135000   134.69625     -51.896539     -52.3144        0             -52.3144        0.41786056   
    136000   136.62642     -51.8681       -52.291948      0             -52.291948      0.42384843   
    137000   162.49977     -52.230072     -52.734186      0             -52.734186      0.50411384   
    138000   224.39121     -53.751354     -54.44747       0             -54.44747       0.69611618   
    139000   151.07067     -56.355794     -56.824452      0             -56.824452      0.468658     
    140000   147.47712     -56.348853     -56.806363      0             -56.806363      0.45750992   
    141000   149.58216     -55.51468      -55.97872       0             -55.97872       0.46404029   
    142000   136.14717     -56.379017     -56.801378      0             -56.801378      0.42236167   
    143000   133.08151     -56.336403     -56.749254      0             -56.749254      0.41285125   
    144000   177.45521     -56.216577     -56.767086      0             -56.767086      0.55050927   
    145000   181.94033     -56.646372     -57.210795      0             -57.210795      0.56442319   
    146000   195.72419     -57.999938     -58.607123      0             -58.607123      0.60718409   
    147000   134.59856     -57.735711     -58.153269      0             -58.153269      0.4175575    
    148000   188.72065     -57.854391     -58.439848      0             -58.439848      0.58545741   
    149000   124.76144     -57.750902     -58.137942      0             -58.137942      0.38704037   
    150000   160.15905     -57.372061     -57.868913      0             -57.868913      0.49685237   
    151000   155.76062     -58.201137     -58.684344      0             -58.684344      0.48320738   
    152000   129.0877      -57.545913     -57.946375      0             -57.946375      0.40046147   
    153000   203.14551     -58.089556     -58.719763      0             -58.719763      0.63020684   
    154000   125.69819     -57.647249     -58.037195      0             -58.037195      0.38994639   
    155000   167.49794     -57.62508      -58.144699      0             -58.144699      0.51961939   
    156000   122.35401     -58.108126     -58.487698      0             -58.487698      0.37957192   
    157000   167.33273     -58.164122     -58.683228      0             -58.683228      0.51910688   
    158000   160.94505     -58.136999     -58.63629       0             -58.63629       0.49929075   
    159000   142.65607     -58.035597     -58.478151      0             -58.478151      0.44255387   
    160000   169.20847     -58.043012     -58.567938      0             -58.567938      0.52492588   
    161000   172.47683     -58.166075     -58.70114       0             -58.70114       0.53506513   
    162000   178.39382     -57.993808     -58.547229      0             -58.547229      0.55342107   
    163000   144.92819     -58.057848     -58.50745       0             -58.50745       0.44960255   
    164000   158.86266     -58.220134     -58.712964      0             -58.712964      0.49283066   
    165000   189.61633     -58.074142     -58.662378      0             -58.662378      0.58823603   
    166000   172.99817     -58.03817      -58.574852      0             -58.574852      0.53668244   
    167000   150.01642     -58.17408      -58.639467      0             -58.639467      0.46538747   
    168000   174.76471     -58.154228     -58.69639       0             -58.69639       0.54216269   
    169000   191.05898     -58.106913     -58.699625      0             -58.699625      0.59271147   
    170000   188.21046     -58.076762     -58.660637      0             -58.660637      0.58387466   
    171000   161.62554     -58.134594     -58.635996      0             -58.635996      0.50140178   
    172000   154.6575      -58.08353      -58.563315      0             -58.563315      0.47978523   
    173000   178.27295     -58.124566     -58.677612      0             -58.677612      0.55304609   
    174000   175.14074     -58.202762     -58.746092      0             -58.746092      0.54332921   
    175000   173.61455     -58.014481     -58.553076      0             -58.553076      0.5385946    
    176000   171.5824      -58.188001     -58.720291      0             -58.720291      0.53229037   
    177000   178.26471     -58.180291     -58.733311      0             -58.733311      0.55302055   
    178000   192.05243     -58.092733     -58.688526      0             -58.688526      0.59579341   
    179000   173.50095     -58.104508     -58.64275       0             -58.64275       0.5382422    
    180000   183.06475     -58.183513     -58.751424      0             -58.751424      0.56791143   
    181000   178.47891     -58.17267      -58.726356      0             -58.726356      0.55368504   
    182000   187.18945     -58.143035     -58.723742      0             -58.723742      0.58070724   
    183000   196.17719     -58.154239     -58.762829      0             -58.762829      0.6085894    
    184000   182.48579     -58.076926     -58.643042      0             -58.643042      0.56611536   
    185000   181.97869     -58.160579     -58.725121      0             -58.725121      0.56454219   
    186000   187.92327     -58.150826     -58.73381       0             -58.73381       0.58298373   
    187000   185.81865     -58.14487      -58.721324      0             -58.721324      0.57645469   
    188000   186.82857     -58.170801     -58.750389      0             -58.750389      0.57958771   
    189000   184.40345     -58.155686     -58.727751      0             -58.727751      0.57206439   
    190000   193.14629     -58.122873     -58.72206       0             -58.72206       0.59918683   
    191000   196.09547     -58.115892     -58.724228      0             -58.724228      0.60833589   
    192000   191.6794      -58.094157     -58.688793      0             -58.688793      0.59463617   
    193000   199.42029     -58.144475     -58.763125      0             -58.763125      0.6186503    
    194000   188.93586     -58.116331     -58.702456      0             -58.702456      0.58612503   
    195000   196.65215     -58.155126     -58.765189      0             -58.765189      0.61006284   
    196000   194.8722      -58.126711     -58.731252      0             -58.731252      0.60454102   
    197000   193.88695     -58.114972     -58.716456      0             -58.716456      0.60148454   
    198000   200.07758     -58.150041     -58.77073       0             -58.77073       0.62068938   
    199000   199.61873     -58.133174     -58.75244       0             -58.75244       0.6192659    
    200000   202.65082     -58.117001     -58.745673      0             -58.745673      0.62867219   
    201000   202.09608     -58.076382     -58.703333      0             -58.703333      0.62695125   
    202000   202.90741     -58.124526     -58.753994      0             -58.753994      0.6294682    
    203000   197.01308     -58.120997     -58.732179      0             -58.732179      0.61118255   
    204000   201.86625     -58.097492     -58.723731      0             -58.723731      0.62623825   
    205000   201.6743      -58.11312      -58.738763      0             -58.738763      0.62564277   
    206000   206.30138     -58.084936     -58.724933      0             -58.724933      0.63999711   
    207000   208.94515     -58.09128      -58.739479      0             -58.739479      0.64819873   
    208000   206.48048     -58.062792     -58.703345      0             -58.703345      0.64055273   
    209000   201.44668     -58.06978      -58.694716      0             -58.694716      0.62493664   
    210000   207.58068     -58.084768     -58.728734      0             -58.728734      0.64396581   
    211000   216.44023     -58.074814     -58.746264      0             -58.746264      0.67145031   
    212000   211.47362     -58.043979     -58.700021      0             -58.700021      0.65604265   
    213000   206.54006     -58.091169     -58.731907      0             -58.731907      0.64073755   
    214000   211.81339     -58.072237     -58.729334      0             -58.729334      0.6570967    
    215000   217.26222     -58.089103     -58.763104      0             -58.763104      0.67400031   
    216000   213.5042      -58.062859     -58.725201      0             -58.725201      0.66234203   
    217000   217.2875      -58.061843     -58.735922      0             -58.735922      0.67407874   
    218000   223.06271     -58.062126     -58.754121      0             -58.754121      0.69199484   
    219000   218.96377     -58.079186     -58.758465      0             -58.758465      0.67927893   
    220000   223.77994     -58.036249     -58.730469      0             -58.730469      0.69421985   
    221000   219.73904     -58.040159     -58.721843      0             -58.721843      0.68168401   
    222000   222.66843     -58.033153     -58.723924      0             -58.723924      0.69077167   
    223000   222.81666     -58.039345     -58.730576      0             -58.730576      0.69123152   
    224000   223.01889     -58.018171     -58.71003       0             -58.71003       0.69185888   
    225000   221.25101     -58.039946     -58.726321      0             -58.726321      0.68637451   
    226000   228.63334     -58.061002     -58.770278      0             -58.770278      0.70927629   
    227000   226.72799     -58.043657     -58.747022      0             -58.747022      0.70336543   
    228000   230.82302     -58.030022     -58.746092      0             -58.746092      0.7160692    
    229000   227.07003     -58.049804     -58.75423       0             -58.75423       0.70442652   
    230000   231.83511     -57.994326     -58.713535      0             -58.713535      0.71920896   
    231000   229.05153     -57.990035     -58.700609      0             -58.700609      0.71057361   
    232000   230.83025     -57.984082     -58.700173      0             -58.700173      0.71609165   
    233000   223.13912     -57.972159     -58.664391      0             -58.664391      0.69223188   
    234000   236.39691     -58.028977     -58.762338      0             -58.762338      0.73336079   
    235000   230.18057     -58.011359     -58.725435      0             -58.725435      0.71407617   
    236000   235.51467     -57.993203     -58.723826      0             -58.723826      0.73062386   
    237000   234.26588     -58.005284     -58.732033      0             -58.732033      0.72674979   
    238000   228.25983     -57.973616     -58.681734      0             -58.681734      0.70811758   
    239000   234.84884     -57.987445     -58.716003      0             -58.716003      0.7285583    
    240000   234.88214     -57.981728     -58.710389      0             -58.710389      0.72866158   
    241000   238.59628     -57.979659     -58.719843      0             -58.719843      0.74018375   
    242000   239.90582     -57.991748     -58.735995      0             -58.735995      0.74424625   
    243000   244.65835     -57.996275     -58.755265      0             -58.755265      0.75898976   
    244000   247.45784     -57.973932     -58.741606      0             -58.741606      0.76767446   
    245000   245.31858     -57.98797      -58.749008      0             -58.749008      0.76103795   
    246000   246.69232     -57.93503      -58.70033       0             -58.70033       0.76529963   
    247000   248.29209     -57.982793     -58.753056      0             -58.753056      0.77026251   
    248000   247.14568     -57.985494     -58.7522        0             -58.7522        0.76670606   
    249000   249.22447     -57.920502     -58.693657      0             -58.693657      0.77315498   
    250000   251.71951     -57.983001     -58.763896      0             -58.763896      0.78089522   
    251000   247.39209     -57.963612     -58.731083      0             -58.731083      0.76747049   
    252000   251.07626     -57.977641     -58.756541      0             -58.756541      0.7788997    
    253000   252.8491      -57.976328     -58.760727      0             -58.760727      0.78439946   
    254000   254.28393     -57.961999     -58.75085       0             -58.75085       0.78885068   
    255000   257.32965     -57.953129     -58.751428      0             -58.751428      0.79829922   
    256000   256.31732     -57.911352     -58.70651       0             -58.70651       0.79515875   
    257000   255.49116     -57.923092     -58.715688      0             -58.715688      0.79259579   
    258000   259.73307     -57.951317     -58.757072      0             -58.757072      0.80575523   
    259000   258.2507      -57.951513     -58.75267       0             -58.75267       0.80115656   
    260000   262.39166     -57.922196     -58.736199      0             -58.736199      0.81400281   
    261000   256.47575     -57.92426      -58.71991       0             -58.71991       0.79565021   
    262000   261.11801     -57.94942      -58.759471      0             -58.759471      0.81005164   
    263000   262.1214      -57.935391     -58.748555      0             -58.748555      0.8131644    
    264000   265.23618     -57.904543     -58.72737       0             -58.72737       0.8228272    
    265000   268.73527     -57.931946     -58.765629      0             -58.765629      0.83368225   
    266000   265.85741     -57.92612      -58.750874      0             -58.750874      0.82475442   
    267000   269.86512     -57.918985     -58.756173      0             -58.756173      0.83718732   
    268000   268.13178     -57.936723     -58.768533      0             -58.768533      0.83181007   
    269000   269.66076     -57.924827     -58.76138       0             -58.76138       0.83655332   
    270000   269.2351      -57.920931     -58.756164      0             -58.756164      0.83523283   
    271000   270.1255      -57.916775     -58.75477       0             -58.75477       0.83799507   
    272000   274.03749     -57.905769     -58.7559        0             -58.7559        0.85013102   
    273000   272.77419     -57.916405     -58.762617      0             -58.762617      0.84621195   
    274000   274.18836     -57.890444     -58.741043      0             -58.741043      0.85059904   
    275000   276.54398     -57.894063     -58.75197       0             -58.75197       0.85790676   
    276000   276.24812     -57.897219     -58.754208      0             -58.754208      0.85698892   
    277000   276.19956     -57.88496      -58.741798      0             -58.741798      0.8568383    
    278000   279.62842     -57.895226     -58.762701      0             -58.762701      0.86747544   
    279000   279.15959     -57.897342     -58.763363      0             -58.763363      0.86602102   
    280000   281.98736     -57.877736     -58.752529      0             -58.752529      0.87479345   
    281000   281.08339     -57.893111     -58.7651        0             -58.7651        0.87198911   
    282000   280.92425     -57.871876     -58.743371      0             -58.743371      0.87149541   
    283000   282.5755      -57.859638     -58.736256      0             -58.736256      0.87661801   
    284000   282.11329     -57.872466     -58.74765       0             -58.74765       0.87518413   
    285000   281.95718     -57.873634     -58.748334      0             -58.748334      0.87469982   
    286000   283.99658     -57.857641     -58.738667      0             -58.738667      0.88102654   
    287000   286.34748     -57.856947     -58.745267      0             -58.745267      0.8883196    
    288000   283.37561     -57.852288     -58.731388      0             -58.731388      0.87910014   
    289000   288.15905     -57.817187     -58.711127      0             -58.711127      0.89393953   
    290000   290.99181     -57.857338     -58.760065      0             -58.760065      0.90272744   
    291000   286.8277      -57.843709     -58.733518      0             -58.733518      0.88980937   
    292000   291.13965     -57.800151     -58.703337      0             -58.703337      0.90318607   
    293000   293.29888     -57.854395     -58.764279      0             -58.764279      0.90988453   
    294000   294.30937     -57.842053     -58.755072      0             -58.755072      0.91301934   
    295000   294.70028     -57.848692     -58.762924      0             -58.762924      0.91423202   
    296000   292.34204     -57.828455     -58.735372      0             -58.735372      0.90691619   
    297000   295.96235     -57.843243     -58.761391      0             -58.761391      0.91814728   
    298000   299.00304     -57.836826     -58.764406      0             -58.764406      0.92758023   
    299000   298.26717     -57.830647     -58.755944      0             -58.755944      0.92529737   
    300000   300.845       -57.823701     -58.756996      0             -58.756996      0.93329443   
    301000   307.02221     -57.812462     -58.764919      0             -58.764919      0.95245764   
    302000   300.34512     -57.822846     -58.754589      0             -58.754589      0.93174369   
    303000   302.69677     -57.821963     -58.761002      0             -58.761002      0.93903909   
    304000   303.34161     -57.813918     -58.754958      0             -58.754958      0.94103953   
    305000   305.3781      -57.792096     -58.739453      0             -58.739453      0.9473572    
    306000   303.13506     -57.801646     -58.742045      0             -58.742045      0.94039876   
    307000   301.1687      -57.780787     -58.715085      0             -58.715085      0.93429862   
    308000   306.11978     -57.794204     -58.743862      0             -58.743862      0.94965808   
    309000   306.03639     -57.771554     -58.720954      0             -58.720954      0.94939941   
    310000   308.6917      -57.735863     -58.6935        0             -58.6935        0.95763682   
    311000   313.46907     -57.745225     -58.717683      0             -58.717683      0.97245739   
    312000   316.06544     -57.776133     -58.756645      0             -58.756645      0.98051195   
    313000   312.95562     -57.760947     -58.731812      0             -58.731812      0.97086452   
    314000   315.19746     -57.783653     -58.761472      0             -58.761472      0.97781927   
    315000   315.95329     -57.785858     -58.766022      0             -58.766022      0.98016403   
    316000   315.26374     -57.763578     -58.741603      0             -58.741603      0.97802488   
    317000   318.81865     -57.727804     -58.716857      0             -58.716857      0.98905307   
    318000   319.54187     -57.753201     -58.744498      0             -58.744498      0.99129669   
    319000   319.34788     -57.767329     -58.758024      0             -58.758024      0.99069489   
    320000   320.93993     -57.762099     -58.757733      0             -58.757733      0.9956338    
    321000   320.49908     -57.764802     -58.759068      0             -58.759068      0.99426619   
    322000   320.75182     -57.755122     -58.750173      0             -58.750173      0.99505025   
    323000   324.28725     -57.752778     -58.758796      0             -58.758796      1.006018     
    324000   325.53681     -57.746163     -58.756057      0             -58.756057      1.0098945    
    325000   323.99498     -57.737846     -58.742957      0             -58.742957      1.0051113    
    326000   325.98087     -57.72815      -58.739422      0             -58.739422      1.011272     
    327000   329.72238     -57.722705     -58.745584      0             -58.745584      1.0228791    
    328000   328.28041     -57.737911     -58.756317      0             -58.756317      1.0184058    
    329000   326.05977     -57.736512     -58.748029      0             -58.748029      1.0115168    
    330000   328.71977     -57.729573     -58.749342      0             -58.749342      1.0197688    
    331000   330.99729     -57.71952      -58.746354      0             -58.746354      1.0268342    
    332000   333.19988     -57.7343       -58.767967      0             -58.767967      1.0336672    
    333000   331.94409     -57.715369     -58.74514       0             -58.74514       1.0297714    
    334000   334.33935     -57.707578     -58.74478       0             -58.74478       1.0372021    
    335000   337.60946     -57.709338     -58.756685      0             -58.756685      1.0473467    
    336000   337.48048     -57.711435     -58.758382      0             -58.758382      1.0469466    
    337000   337.77564     -57.709696     -58.757559      0             -58.757559      1.0478623    
    338000   338.92314     -57.700211     -58.751633      0             -58.751633      1.0514221    
    339000   340.50874     -57.709886     -58.766227      0             -58.766227      1.056341     
    340000   340.73412     -57.70749      -58.76453       0             -58.76453       1.0570402    
    341000   338.68072     -57.676043     -58.726713      0             -58.726713      1.05067      
    342000   343.11412     -57.669454     -58.733878      0             -58.733878      1.0644235    
    343000   345.53822     -57.684286     -58.75623       0             -58.75623       1.0719437    
    344000   347.03426     -57.684236     -58.760821      0             -58.760821      1.0765848    
    345000   344.91012     -57.695228     -58.765223      0             -58.765223      1.0699952    
    346000   343.0327      -57.665489     -58.72966       0             -58.72966       1.064171     
    347000   343.54806     -57.643887     -58.709657      0             -58.709657      1.0657697    
    348000   347.67451     -57.656868     -58.735439      0             -58.735439      1.078571     
    349000   345.49677     -57.650724     -58.722539      0             -58.722539      1.0718151    
    350000   347.19506     -57.661193     -58.738277      0             -58.738277      1.0770836    
    351000   350.78118     -57.67269      -58.760899      0             -58.760899      1.0882086    
    352000   352.54338     -57.659589     -58.753264      0             -58.753264      1.0936754    
    353000   353.74641     -57.653713     -58.75112       0             -58.75112       1.0974075    
    354000   356.70053     -57.655707     -58.762279      0             -58.762279      1.1065719    
    355000   354.57249     -57.662153     -58.762123      0             -58.762123      1.0999702    
    356000   355.76076     -57.657594     -58.761251      0             -58.761251      1.1036565    
    357000   358.3657      -57.638159     -58.749896      0             -58.749896      1.1117377    
    358000   360.4535      -57.625826     -58.74404       0             -58.74404       1.1182145    
    359000   361.60737     -57.627462     -58.749256      0             -58.749256      1.1217941    
    360000   354.91406     -57.624692     -58.725722      0             -58.725722      1.1010298    
    361000   359.515       -57.616825     -58.732128      0             -58.732128      1.1153031    
    362000   357.09453     -57.584587     -58.692381      0             -58.692381      1.1077942    
    363000   361.86536     -57.576153     -58.698747      0             -58.698747      1.1225944    
    364000   365.73077     -57.635842     -58.770427      0             -58.770427      1.1345859    
    365000   364.82505     -57.603959     -58.735735      0             -58.735735      1.1317761    
    366000   365.42412     -57.606519     -58.740153      0             -58.740153      1.1336346    
    367000   367.1701      -57.600716     -58.739767      0             -58.739767      1.139051     
    368000   368.26174     -57.583174     -58.725612      0             -58.725612      1.1424376    
    369000   367.10148     -57.579246     -58.718084      0             -58.718084      1.1388382    
    370000   371.19163     -57.583558     -58.735085      0             -58.735085      1.1515268    
    371000   373.39884     -57.595786     -58.754161      0             -58.754161      1.1583741    
    372000   370.25134     -57.593934     -58.742544      0             -58.742544      1.1486098    
    373000   375.1795      -57.590512     -58.75441       0             -58.75441       1.1638982    
    374000   373.11043     -57.604663     -58.762142      0             -58.762142      1.1574794    
    375000   372.64094     -57.576714     -58.732737      0             -58.732737      1.1560229    
    376000   373.28465     -57.536186     -58.694205      0             -58.694205      1.1580199    
    377000   381.55592     -57.5672       -58.750879      0             -58.750879      1.1836794    
    378000   377.27142     -57.574637     -58.745025      0             -58.745025      1.1703878    
    379000   379.73027     -57.580262     -58.758278      0             -58.758278      1.1780157    
    380000   378.27642     -57.565231     -58.738736      0             -58.738736      1.1735055    
    381000   376.2703      -57.538934     -58.706216      0             -58.706216      1.1672821    
    382000   378.76328     -57.535547     -58.710563      0             -58.710563      1.1750159    
    383000   381.50401     -57.553831     -58.737349      0             -58.737349      1.1835183    
    384000   380.98448     -57.555928     -58.737835      0             -58.737835      1.1819066    
    385000   382.93051     -57.560353     -58.748297      0             -58.748297      1.1879437    
    386000   385.99732     -57.550412     -58.747869      0             -58.747869      1.1974577    
    387000   388.0241      -57.54613      -58.749875      0             -58.749875      1.2037452    
    388000   386.79037     -57.539715     -58.739633      0             -58.739633      1.1999179    
    389000   386.1882      -57.541292     -58.739342      0             -58.739342      1.1980498    
    390000   385.07933     -57.522258     -58.716868      0             -58.716868      1.1946098    
    391000   392.27538     -57.521538     -58.738472      0             -58.738472      1.2169337    
    392000   396.33865     -57.532173     -58.761712      0             -58.761712      1.229539     
    393000   395.11189     -57.529661     -58.755394      0             -58.755394      1.2257333    
    394000   393.54781     -57.536702     -58.757583      0             -58.757583      1.2208811    
    395000   396.19388     -57.50354      -58.73263       0             -58.73263       1.2290899    
    396000   395.82532     -57.529083     -58.75703       0             -58.75703       1.2279465    
    397000   396.86837     -57.533325     -58.764507      0             -58.764507      1.2311823    
    398000   398.739       -57.522874     -58.759859      0             -58.759859      1.2369855    
    399000   400.99338     -57.519775     -58.763754      0             -58.763754      1.2439791    
    400000   400.35817     -57.512115     -58.754124      0             -58.754124      1.2420085    
    401000   399.70574     -57.470711     -58.710696      0             -58.710696      1.2399845    
    402000   403.47477     -57.480706     -58.732383      0             -58.732383      1.251677     
    403000   404.11378     -57.492766     -58.746425      0             -58.746425      1.2536593    
    404000   406.8536      -57.498894     -58.761053      0             -58.761053      1.2621589    
    405000   401.0232      -57.502402     -58.746474      0             -58.746474      1.2440716    
    406000   404.29182     -57.476461     -58.730672      0             -58.730672      1.2542117    
    407000   409.8719      -57.481128     -58.75265       0             -58.75265       1.2715224    
    408000   408.54627     -57.479335     -58.746745      0             -58.746745      1.26741      
    409000   410.41511     -57.493267     -58.766475      0             -58.766475      1.2732076    
    410000   416.99494     -57.469679     -58.763299      0             -58.763299      1.2936198    
    411000   412.113       -57.471058     -58.749532      0             -58.749532      1.2784749    
    412000   406.98377     -57.437367     -58.69993       0             -58.69993       1.2625628    
    413000   408.23474     -57.465368     -58.731812      0             -58.731812      1.2664436    
    414000   410.93554     -57.465855     -58.740677      0             -58.740677      1.2748221    
    415000   413.01289     -57.452137     -58.733404      0             -58.733404      1.2812665    
    416000   413.84214     -57.464105     -58.747944      0             -58.747944      1.2838391    
    417000   419.45639     -57.456576     -58.757832      0             -58.757832      1.3012559    
    418000   417.38253     -57.432267     -58.727089      0             -58.727089      1.2948222    
    419000   418.4874      -57.386616     -58.684866      0             -58.684866      1.2982498    
    420000   421.32381     -57.413832     -58.720881      0             -58.720881      1.307049     
    421000   418.2677      -57.440455     -58.738023      0             -58.738023      1.2975683    
    422000   422.84388     -57.440762     -58.752527      0             -58.752527      1.3117647    
    423000   422.65283     -57.455949     -58.767121      0             -58.767121      1.311172     
    424000   423.18097     -57.436323     -58.749134      0             -58.749134      1.3128104    
    425000   427.23999     -57.424229     -58.749631      0             -58.749631      1.3254025    
    426000   429.81037     -57.427868     -58.761245      0             -58.761245      1.3333764    
    427000   423.7987      -57.397965     -58.712692      0             -58.712692      1.3147267    
    428000   423.31765     -57.415351     -58.728586      0             -58.728586      1.3132344    
    429000   428.43493     -57.415062     -58.744172      0             -58.744172      1.3291095    
    430000   432.43191     -57.406737     -58.748247      0             -58.748247      1.3415091    
    431000   431.68109     -57.412957     -58.752136      0             -58.752136      1.3391799    
    432000   438.30752     -57.383008     -58.742745      0             -58.742745      1.3597366    
    433000   434.52796     -57.403996     -58.752008      0             -58.752008      1.3480115    
    434000   429.00471     -57.367134     -58.698011      0             -58.698011      1.3308771    
    435000   430.80796     -57.395512     -58.731983      0             -58.731983      1.3364712    
    436000   434.34836     -57.395748     -58.743202      0             -58.743202      1.3474544    
    437000   434.83244     -57.409099     -58.758055      0             -58.758055      1.3489561    
    438000   438.52227     -57.390376     -58.750779      0             -58.750779      1.3604029    
    439000   438.31518     -57.372592     -58.732353      0             -58.732353      1.3597604    
    440000   435.22627     -57.36628      -58.716458      0             -58.716458      1.3501779    
    441000   444.26223     -57.357276     -58.735485      0             -58.735485      1.3782096    
    442000   435.17301     -57.320823     -58.670835      0             -58.670835      1.3500126    
    443000   439.12589     -57.357048     -58.719323      0             -58.719323      1.3622754    
    444000   445.29098     -57.380307     -58.761708      0             -58.761708      1.381401     
    445000   440.2413      -57.338069     -58.703804      0             -58.703804      1.3657357    
    446000   435.29186     -57.326545     -58.676926      0             -58.676926      1.3503813    
    447000   441.03896     -57.353247     -58.721457      0             -58.721457      1.3682102    
    448000   447.64369     -57.363607     -58.752307      0             -58.752307      1.3886997    
    449000   449.28749     -57.362914     -58.756714      0             -58.756714      1.3937992    
    450000   447.5727      -57.353713     -58.742193      0             -58.742193      1.3884795    
    451000   445.65982     -57.312958     -58.695504      0             -58.695504      1.3825453    
    452000   444.08388     -57.333899     -58.711556      0             -58.711556      1.3776563    
    453000   447.87823     -57.312524     -58.701951      0             -58.701951      1.3894273    
    454000   454.02888     -57.32249      -58.730998      0             -58.730998      1.4085081    
    455000   453.90752     -57.349475     -58.757606      0             -58.757606      1.4081316    
    456000   451.95823     -57.34291      -58.744995      0             -58.744995      1.4020845    
    457000   454.79665     -57.311794     -58.722684      0             -58.722684      1.4108899    
    458000   461.30309     -57.296494     -58.727569      0             -58.727569      1.4310745    
    459000   458.11864     -57.332705     -58.7539        0             -58.7539        1.4211956    
    460000   458.13198     -57.314179     -58.735416      0             -58.735416      1.4212369    
    461000   458.43393     -57.329739     -58.751913      0             -58.751913      1.4221737    
    462000   461.1614      -57.310387     -58.741022      0             -58.741022      1.430635     
    463000   464.85755     -57.295404     -58.737505      0             -58.737505      1.4421013    
    464000   461.76582     -57.313259     -58.745769      0             -58.745769      1.43251      
    465000   461.10652     -57.286636     -58.717101      0             -58.717101      1.4304647    
    466000   466.12498     -57.299811     -58.745844      0             -58.745844      1.4460332    
    467000   467.40693     -57.317875     -58.767885      0             -58.767885      1.4500101    
    468000   467.67046     -57.307411     -58.758238      0             -58.758238      1.4508276    
    469000   472.32342     -57.28558      -58.750842      0             -58.750842      1.4652623    
    470000   471.848       -57.25773      -58.721517      0             -58.721517      1.4637874    
    471000   474.74624     -57.275783     -58.748562      0             -58.748562      1.4727784    
    472000   472.15226     -57.291639     -58.75637       0             -58.75637       1.4647313    
    473000   472.69298     -57.283291     -58.7497        0             -58.7497        1.4664087    
    474000   470.20767     -57.262593     -58.721292      0             -58.721292      1.4586987    
    475000   470.85202     -57.22959      -58.690288      0             -58.690288      1.4606976    
    476000   476.71394     -57.247718     -58.7266        0             -58.7266        1.4788827    
    477000   482.68773     -57.271673     -58.769088      0             -58.769088      1.4974149    
    478000   480.8517      -57.267811     -58.75953       0             -58.75953       1.491719     
    479000   487.59127     -57.240411     -58.753038      0             -58.753038      1.5126268    
    480000   486.96143     -57.215939     -58.726612      0             -58.726612      1.5106729    
    481000   477.67364     -57.21345      -58.69531       0             -58.69531       1.4818599    
    482000   478.32734     -57.232537     -58.716425      0             -58.716425      1.4838879    
    483000   484.13341     -57.251515     -58.753415      0             -58.753415      1.5018997    
    484000   485.70159     -57.242918     -58.749682      0             -58.749682      1.5067646    
    485000   488.21308     -57.247535     -58.76209       0             -58.76209       1.5145558    
    486000   485.65557     -57.246804     -58.753426      0             -58.753426      1.5066218    
    487000   484.50055     -57.249095     -58.752134      0             -58.752134      1.5030387    
    488000   489.20064     -57.230919     -58.748538      0             -58.748538      1.5176195    
    489000   486.74955     -57.236561     -58.746576      0             -58.746576      1.5100156    
    490000   497.65306     -57.187866     -58.731707      0             -58.731707      1.543841     
    491000   495.74107     -57.230319     -58.768229      0             -58.768229      1.5379095    
    492000   489.25498     -57.217389     -58.735177      0             -58.735177      1.5177881    
    493000   491.85151     -57.209158     -58.735001      0             -58.735001      1.5258431    
    494000   499.66542     -57.197006     -58.74709       0             -58.74709       1.5500838    
    495000   497.51726     -57.196636     -58.740056      0             -58.740056      1.5434197    
    496000   490.5193      -57.167901     -58.689611      0             -58.689611      1.5217103    
    497000   497.15256     -57.220246     -58.762534      0             -58.762534      1.5422883    
    498000   497.31867     -57.205298     -58.748101      0             -58.748101      1.5428036    
    499000   500.56323     -57.19169      -58.744559      0             -58.744559      1.552869     
    500000   502.04037     -57.189976     -58.747427      0             -58.747427      1.5574515    
    501000   507.083       -57.14122      -58.714315      0             -58.714315      1.5730949    
    502000   501.90261     -57.10396      -58.660984      0             -58.660984      1.5570241    
    503000   499.63848     -57.157424     -58.707424      0             -58.707424      1.5500002    
    504000   504.01212     -57.159103     -58.722671      0             -58.722671      1.5635683    
    505000   509.50417     -57.155494     -58.7361        0             -58.7361        1.580606     
    506000   511.72445     -57.163084     -58.750578      0             -58.750578      1.5874938    
    507000   515.32825     -57.098622     -58.697296      0             -58.697296      1.5986737    
    508000   497.86115     -57.072422     -58.616909      0             -58.616909      1.5444865    
    509000   504.75508     -57.144758     -58.710631      0             -58.710631      1.5658732    
    510000   510.56207     -57.156589     -58.740477      0             -58.740477      1.5838879    
    511000   510.40223     -57.150034     -58.733426      0             -58.733426      1.583392     
    512000   506.67219     -57.122256     -58.694077      0             -58.694077      1.5718205    
    513000   517.97865     -57.124727     -58.731623      0             -58.731623      1.6068959    
    514000   512.07383     -57.135404     -58.723982      0             -58.723982      1.5885777    
    515000   524.4667      -57.130857     -58.757881      0             -58.757881      1.6270234    
    516000   514.03388     -57.10106      -58.695719      0             -58.695719      1.5946583    
    517000   518.86349     -57.111425     -58.721066      0             -58.721066      1.6096409    
    518000   517.86889     -57.113198     -58.719754      0             -58.719754      1.6065554    
    519000   523.39308     -57.139171     -58.762864      0             -58.762864      1.6236928    
    520000   522.1647      -57.147544     -58.767426      0             -58.767426      1.619882     
    521000   521.2476      -57.098093     -58.71513       0             -58.71513       1.617037     
    522000   522.59486     -57.11759      -58.738807      0             -58.738807      1.6212165    
    523000   528.20984     -57.103733     -58.742368      0             -58.742368      1.6386355    
    524000   531.31581     -57.067995     -58.716266      0             -58.716266      1.648271     
    525000   523.24652     -57.077028     -58.700266      0             -58.700266      1.6232381    
    526000   525.00573     -57.113834     -58.74253       0             -58.74253       1.6286956    
    527000   533.58651     -57.065224     -58.720539      0             -58.720539      1.6553153    
    528000   540.6954      -57.046117     -58.723486      0             -58.723486      1.6773688    
    529000   533.57421     -57.05626      -58.711537      0             -58.711537      1.6552771    
    530000   531.12656     -57.084562     -58.732246      0             -58.732246      1.6476839    
    531000   522.81951     -57.049627     -58.67154       0             -58.67154       1.6219134    
    532000   532.84888     -57.073069     -58.726096      0             -58.726096      1.653027     
    533000   526.49529     -57.055955     -58.689271      0             -58.689271      1.6333166    
    534000   529.98969     -57.094753     -58.73891       0             -58.73891       1.6441571    
    535000   535.69179     -57.066335     -58.728182      0             -58.728182      1.6618464    
    536000   534.73764     -57.066741     -58.725627      0             -58.725627      1.6588864    
    537000   535.48322     -57.045294     -58.706493      0             -58.706493      1.6611993    
    538000   536.90322     -57.033719     -58.699324      0             -58.699324      1.6656045    
    539000   529.45195     -57.057202     -58.699691      0             -58.699691      1.6424889    
    540000   534.22628     -57.057849     -58.715149      0             -58.715149      1.6573       
    541000   541.2506      -57.05901      -58.738101      0             -58.738101      1.6790911    
    542000   534.92008     -57.035259     -58.694711      0             -58.694711      1.6594523    
    543000   543.70165     -57.067641     -58.754336      0             -58.754336      1.6866949    
    544000   542.2745      -57.030668     -58.712935      0             -58.712935      1.6822675    
    545000   544.79224     -57.047009     -58.737087      0             -58.737087      1.6900782    
    546000   548.89356     -57.046434     -58.749235      0             -58.749235      1.7028015    
    547000   550.07058     -57.056444     -58.762897      0             -58.762897      1.7064529    
    548000   560.22602     -57.009705     -58.747663      0             -58.747663      1.7379575    
    549000   547.44361     -56.945661     -58.643965      0             -58.643965      1.6983034    
    550000   538.98148     -57.039551     -58.711603      0             -58.711603      1.6720518    
    551000   551.27872     -57.044607     -58.754807      0             -58.754807      1.7102008    
    552000   551.24554     -57.042679     -58.752777      0             -58.752777      1.7100979    
    553000   555.18569     -57.036623     -58.758944      0             -58.758944      1.7223212    
    554000   554.37884     -57.040028     -58.759846      0             -58.759846      1.7198181    
    555000   558.68595     -57.032428     -58.765608      0             -58.765608      1.7331799    
    556000   567.91144     -56.995269     -58.757068      0             -58.757068      1.7617995    
    557000   562.88439     -56.970723     -58.716928      0             -58.716928      1.7462044    
    558000   553.43451     -56.971191     -58.688079      0             -58.688079      1.7168886    
    559000   549.36155     -56.982111     -58.686365      0             -58.686365      1.7042533    
    560000   556.70834     -57.009903     -58.736948      0             -58.736948      1.7270448    
    561000   554.38481     -57.006896     -58.726733      0             -58.726733      1.7198367    
    562000   561.2444      -57.009352     -58.750469      0             -58.750469      1.7411168    
    563000   562.3316      -57.002042     -58.746532      0             -58.746532      1.7444895    
    564000   567.02489     -57.000435     -58.759484      0             -58.759484      1.7590493    
    565000   568.28708     -56.994336     -58.757301      0             -58.757301      1.7629649    
    566000   564.51199     -56.991218     -58.742472      0             -58.742472      1.7512536    
    567000   562.89943     -56.989534     -58.735785      0             -58.735785      1.7462511    
    568000   567.80845     -56.991543     -58.753023      0             -58.753023      1.7614801    
    569000   566.83333     -56.979982     -58.738437      0             -58.738437      1.758455     
    570000   569.41094     -56.981316     -58.747768      0             -58.747768      1.7664514    
    571000   573.52619     -56.965139     -58.744357      0             -58.744357      1.7792179    
    572000   580.71328     -56.945419     -58.746933      0             -58.746933      1.801514     
    573000   574.03866     -56.959191     -58.739998      0             -58.739998      1.7808077    
    574000   578.42649     -56.967466     -58.761886      0             -58.761886      1.7944198    
    575000   575.42249     -56.947705     -58.732806      0             -58.732806      1.7851007    
    576000   576.33522     -56.975991     -58.763923      0             -58.763923      1.7879322    
    577000   575.67698     -56.966527     -58.752417      0             -58.752417      1.7858902    
    578000   579.50576     -56.972434     -58.770202      0             -58.770202      1.797768     
    579000   580.09709     -56.955653     -58.755256      0             -58.755256      1.7996024    
    580000   579.81822     -56.946898     -58.745636      0             -58.745636      1.7987373    
    581000   582.48844     -56.944263     -58.751284      0             -58.751284      1.807021     
    582000   587.71693     -56.943032     -58.766273      0             -58.766273      1.823241     
    583000   591.58801     -56.912315     -58.747565      0             -58.747565      1.83525      
    584000   587.06274     -56.87826      -58.699471      0             -58.699471      1.8212116    
    585000   584.30941     -56.909504     -58.722174      0             -58.722174      1.8126701    
    586000   586.64513     -56.938763     -58.758679      0             -58.758679      1.819916     
    587000   582.93585     -56.936447     -58.744856      0             -58.744856      1.8084089    
    588000   585.31684     -56.925667     -58.741462      0             -58.741462      1.8157954    
    589000   582.65635     -56.874303     -58.681845      0             -58.681845      1.8075419    
    590000   582.00885     -56.913894     -58.719427      0             -58.719427      1.8055332    
    591000   590.62448     -56.929269     -58.76153       0             -58.76153       1.8322609    
    592000   591.85791     -56.911859     -58.747947      0             -58.747947      1.8360874    
    593000   599.76995     -56.897851     -58.758484      0             -58.758484      1.8606324    
    594000   597.49022     -56.890887     -58.744447      0             -58.744447      1.8535601    
    595000   598.46512     -56.845034     -58.701619      0             -58.701619      1.8565845    
    596000   590.08471     -56.866904     -58.69749       0             -58.69749       1.8305864    
    597000   594.96139     -56.875572     -58.721287      0             -58.721287      1.8457151    
    598000   599.25287     -56.891959     -58.750987      0             -58.750987      1.8590283    
    599000   600.85575     -56.898779     -58.76278       0             -58.76278       1.8640008    
    600000   600.65392     -56.898295     -58.761669      0             -58.761669      1.8633747    
    601000   597.24525     -56.891181     -58.743982      0             -58.743982      1.8528002    
    602000   600.85199     -56.885945     -58.749934      0             -58.749934      1.8639892    
    603000   600.73016     -56.86473      -58.728342      0             -58.728342      1.8636112    
    604000   605.09446     -56.882294     -58.759445      0             -58.759445      1.8771504    
    605000   608.52806     -56.850952     -58.738754      0             -58.738754      1.8878022    
    606000   607.63178     -56.860216     -58.745237      0             -58.745237      1.8850217    
    607000   614.88851     -56.845738     -58.753272      0             -58.753272      1.9075339    
    608000   609.58003     -56.869382     -58.760448      0             -58.760448      1.8910657    
    609000   611.00177     -56.865559     -58.761035      0             -58.761035      1.8954763    
    610000   619.21255     -56.843038     -58.763987      0             -58.763987      1.9209481    
    611000   614.97796     -56.853812     -58.761624      0             -58.761624      1.9078114    
    612000   610.1734      -56.8647       -58.757606      0             -58.757606      1.8929064    
    613000   609.38185     -56.848298     -58.738749      0             -58.738749      1.8904509    
    614000   614.54983     -56.845426     -58.75191       0             -58.75191       1.9064832    
    615000   615.78432     -56.808761     -58.719074      0             -58.719074      1.9103129    
    616000   729.42054     -58.154449     -60.417289      0             -60.417289      2.2628401    
    617000   409.60274     -63.959404     -65.230091      0             -65.230091      1.2706874    
    618000   529.64858     -62.528468     -64.171567      0             -64.171567      1.6430988    
    619000   652.63767     -64.340091     -66.364732      0             -66.364732      2.024641     
    620000   528.10379     -63.593043     -65.23135       0             -65.23135       1.6383066    
    621000   581.99968     -64.286075     -66.09158       0             -66.09158       1.8055047    
    622000   607.99765     -63.450206     -65.336363      0             -65.336363      1.8861568    
    623000   627.98013     -64.300174     -66.248322      0             -66.248322      1.9481473    
    624000   585.25961     -64.289862     -66.10548       0             -66.10548       1.8156178    
    625000   645.47246     -63.884359     -65.886772      0             -65.886772      2.0024127    
    626000   607.31505     -64.388904     -66.272943      0             -66.272943      1.8840391    
    627000   662.38079     -64.243601     -66.298467      0             -66.298467      2.0548665    
    628000   599.45389     -64.200454     -66.060106      0             -66.060106      1.8596519    
    629000   643.14236     -64.284913     -66.280097      0             -66.280097      1.9951842    
    630000   594.27442     -63.961875     -65.805459      0             -65.805459      1.843584     
    631000   651.50553     -64.330815     -66.351944      0             -66.351944      2.0211288    
    632000   633.12022     -64.374508     -66.338601      0             -66.338601      1.9640931    
    633000   634.66673     -64.09097      -66.059861      0             -66.059861      1.9688907    
    634000   640.76174     -64.363884     -66.351683      0             -66.351683      1.9877989    
    635000   642.49635     -64.101621     -66.094801      0             -66.094801      1.9931801    
    636000   627.65486     -64.356167     -66.303305      0             -66.303305      1.9471382    
    637000   625.9074      -64.288957     -66.230674      0             -66.230674      1.9417172    
    638000   638.59004     -64.132447     -66.113509      0             -66.113509      1.9810618    
    639000   614.02724     -64.303423     -66.208285      0             -66.208285      1.904862     
    640000   641.12963     -64.304573     -66.293513      0             -66.293513      1.9889402    
    641000   657.60605     -64.126961     -66.167015      0             -66.167015      2.0400541    
    642000   638.22383     -64.316395     -66.296321      0             -66.296321      1.9799257    
    643000   636.88479     -64.324519     -66.300291      0             -66.300291      1.9757717    
    644000   646.52636     -64.174527     -66.180209      0             -66.180209      2.0056822    
    645000   629.95831     -64.222313     -66.176597      0             -66.176597      1.9542841    
    646000   645.39025     -64.287906     -66.290064      0             -66.290064      2.0021577    
    647000   656.26413     -64.328263     -66.364154      0             -66.364154      2.0358911    
    648000   633.02444     -64.222148     -66.185944      0             -66.185944      1.9637959    
    649000   649.56845     -64.357986     -66.373105      0             -66.373105      2.0151195    
    650000   659.09349     -64.238907     -66.283575      0             -66.283575      2.0446685    
    651000   641.64639     -64.254188     -66.244732      0             -66.244732      1.9905433    
    652000   653.71092     -64.331406     -66.359376      0             -66.359376      2.0279704    
    653000   653.26968     -64.228249     -66.254851      0             -66.254851      2.0266016    
    654000   665.20647     -64.151009     -66.214642      0             -66.214642      2.0636324    
    655000   643.57558     -64.253103     -66.249631      0             -66.249631      1.9965281    
    656000   639.05093     -64.276529     -66.259021      0             -66.259021      1.9824916    
    657000   669.66518     -64.227021     -66.304486      0             -66.304486      2.0774644    
    658000   648.31581     -64.276125     -66.287359      0             -66.287359      2.0112335    
    659000   657.01724     -64.330199     -66.368426      0             -66.368426      2.0382274    
    660000   667.05419     -64.314527     -66.383891      0             -66.383891      2.0693645    
    661000   659.29686     -64.110672     -66.155972      0             -66.155972      2.0452994    
    662000   660.32327     -64.272199     -66.320682      0             -66.320682      2.0484835    
    663000   659.87135     -64.281561     -66.328642      0             -66.328642      2.0470816    
    664000   659.78385     -64.197098     -66.243908      0             -66.243908      2.0468101    
    665000   655.53668     -64.282023     -66.315657      0             -66.315657      2.0336344    
    666000   669.01107     -64.306273     -66.381709      0             -66.381709      2.0754352    
    667000   679.23193     -64.205508     -66.312651      0             -66.312651      2.1071428    
    668000   661.15467     -64.217403     -66.268466      0             -66.268466      2.0510628    
    669000   655.61824     -64.272007     -66.305894      0             -66.305894      2.0338874    
    670000   679.91977     -64.258086     -66.367362      0             -66.367362      2.1092767    
    671000   667.67064     -64.200381     -66.271658      0             -66.271658      2.0712769    
    672000   666.94889     -64.277417     -66.346455      0             -66.346455      2.0690378    
    673000   669.72373     -64.25161      -66.329256      0             -66.329256      2.0776461    
    674000   672.44091     -64.170319     -66.256394      0             -66.256394      2.0860754    
    675000   667.89333     -64.243493     -66.31546       0             -66.31546       2.0719677    
    676000   678.34878     -64.248947     -66.35335       0             -66.35335       2.1044031    
    677000   691.81717     -64.259445     -66.40563       0             -66.40563       2.1461853    
    678000   670.157       -64.149567     -66.228557      0             -66.228557      2.0789902    
    679000   669.18822     -64.241017     -66.317002      0             -66.317002      2.0759848    
    680000   666.31122     -64.225892     -66.292952      0             -66.292952      2.0670596    
    681000   686.33002     -64.195398     -66.324561      0             -66.324561      2.1291628    
    682000   676.1849      -64.206126     -66.303816      0             -66.303816      2.0976902    
    683000   685.81815     -64.265479     -66.393054      0             -66.393054      2.1275749    
    684000   689.73522     -64.24575      -66.385477      0             -66.385477      2.1397266    
    685000   684.81305     -64.179268     -66.303724      0             -66.303724      2.1244568    
    686000   692.36969     -64.198695     -66.346594      0             -66.346594      2.1478994    
    687000   699.59878     -64.193902     -66.364228      0             -66.364228      2.1703257    
    688000   693.0718      -64.221878     -66.371956      0             -66.371956      2.1500775    
    689000   682.11388     -64.196431     -66.312514      0             -66.312514      2.1160833    
    690000   700.14856     -64.144895     -66.316926      0             -66.316926      2.1720313    
    691000   719.97493     -64.75706      -66.990597      0             -66.990597      2.2335375    
    692000   828.25976     -67.486618     -70.056082      0             -70.056082      2.5694634    
    693000   645.08088     -67.684914     -69.686112      0             -69.686112      2.0011979    
    694000   707.53134     -66.212925     -68.40786       0             -68.40786       2.1949345    
    695000   762.3208      -70.034976     -72.399881      0             -72.399881      2.3649047    
    696000   690.87473     -69.078004     -71.221265      0             -71.221265      2.1432616    
    697000   702.02729     -69.447269     -71.625129      0             -71.625129      2.1778596    
    698000   662.77289     -67.898932     -69.955015      0             -69.955015      2.0560829    
    699000   806.93845     -69.160155     -71.663475      0             -71.663475      2.5033196    
    700000   629.6929      -68.235436     -70.188896      0             -70.188896      1.9534607    
    701000   816.78927     -68.043968     -70.577847      0             -70.577847      2.5338792    
    702000   730.38539     -69.696031     -71.961865      0             -71.961865      2.2658333    
    703000   682.37045     -70.84587      -72.96275       0             -72.96275       2.1168793    
    704000   675.57132     -69.996362     -72.092149      0             -72.092149      2.0957867    
    705000   711.9375      -70.891908     -73.100511      0             -73.100511      2.2086035    
    706000   700.19388     -69.417588     -71.58976       0             -71.58976       2.1721719    
    707000   719.96368     -70.383768     -72.617271      0             -72.617271      2.2335026    
    708000   688.52909     -70.565677     -72.701662      0             -72.701662      2.1359849    
    709000   743.13843     -70.530382     -72.835778      0             -72.835778      2.3053963    
    710000   749.98214     -70.981225     -73.307853      0             -73.307853      2.3266272    
    711000   640.17488     -70.046126     -72.032104      0             -72.032104      1.9859783    
    712000   757.50792     -70.492334     -72.842308      0             -72.842308      2.349974     
    713000   755.22214     -69.947097     -72.28998       0             -72.28998       2.342883     
    714000   698.26341     -70.908323     -73.074506      0             -73.074506      2.1661831    
    715000   802.55499     -70.858935     -73.348656      0             -73.348656      2.489721     
    716000   687.22671     -70.46314      -72.595085      0             -72.595085      2.1319446    
    717000   621.27614     -71.144741     -73.072091      0             -73.072091      1.9273498    
    718000   734.8252      -71.086913     -73.366519      0             -73.366519      2.2796067    
    719000   768.02976     -71.13805      -73.520666      0             -73.520666      2.3826153    
    720000   806.83987     -70.485302     -72.988316      0             -72.988316      2.5030137    
    721000   717.08095     -70.832689     -73.057248      0             -73.057248      2.2245597    
    722000   745.16309     -70.936791     -73.248469      0             -73.248469      2.3116773    
    723000   712.30349     -71.063308     -73.273047      0             -73.273047      2.2097389    
    724000   694.46458     -70.774542     -72.92894       0             -72.92894       2.1543982    
    725000   748.89409     -71.10022      -73.423472      0             -73.423472      2.3232518    
    726000   715.2073      -70.942664     -73.161411      0             -73.161411      2.2187472    
    727000   757.69871     -71.331638     -73.682204      0             -73.682204      2.3505659    
    728000   718.97504     -70.856944     -73.08738       0             -73.08738       2.2304356    
    729000   748.91701     -70.537944     -72.861267      0             -72.861267      2.3233229    
    730000   732.09393     -70.893272     -73.164406      0             -73.164406      2.2711336    
    731000   690.07948     -71.291708     -73.432503      0             -73.432503      2.1407946    
    732000   749.73899     -71.203076     -73.528949      0             -73.528949      2.3258729    
    733000   694.2205      -70.746449     -72.90009       0             -72.90009       2.153641     
    734000   732.88361     -70.743783     -73.017367      0             -73.017367      2.2735834    
    735000   746.68897     -70.980889     -73.2973        0             -73.2973        2.316411     
    736000   741.5785      -71.429625     -73.730182      0             -73.730182      2.3005571    
    737000   725.20448     -71.05822      -73.307981      0             -73.307981      2.2497609    
    738000   711.41701     -71.070136     -73.277125      0             -73.277125      2.2069888    
    739000   730.95924     -71.175829     -73.443443      0             -73.443443      2.2676135    
    740000   719.27173     -70.954902     -73.186258      0             -73.186258      2.231356     
    741000   709.21426     -71.058531     -73.258686      0             -73.258686      2.2001553    
    742000   759.87842     -71.216436     -73.573764      0             -73.573764      2.3573279    
    743000   748.8603      -71.083471     -73.406618      0             -73.406618      2.323147     
    744000   704.61802     -71.427031     -73.612928      0             -73.612928      2.1858967    
    745000   757.18198     -71.369615     -73.718577      0             -73.718577      2.3489629    
    746000   766.47448     -71.080796     -73.458586      0             -73.458586      2.3777904    
    747000   752.45537     -71.12118      -73.45548       0             -73.45548       2.3342998    
    748000   729.24407     -71.482847     -73.745139      0             -73.745139      2.2622927    
    749000   784.88292     -71.091596     -73.526494      0             -73.526494      2.4348979    
    750000   742.65486     -71.277664     -73.58156       0             -73.58156       2.3038962    
    751000   795.2706      -71.287997     -73.75512       0             -73.75512       2.467123     
    752000   769.34309     -71.38776      -73.774449      0             -73.774449      2.3866896    
[...]
   5202000   4769.1068     -140.80266     -155.59759      0             -155.59759      14.794931    
   5203000   4814.5823     -139.28987     -154.22588      0             -154.22588      14.936006    
   5204000   4875.6292     -136.74847     -151.87386      0             -151.87386      15.125389    
   5205000   4766.3393     -134.35765     -149.144        0             -149.144        14.786345    
   5206000   4850.3951     -133.9427      -148.98981      0             -148.98981      15.047106    
   5207000   5163.2982     -137.38913     -153.40694      0             -153.40694      16.017808    
   5208000   4684.7732     -138.57115     -153.10446      0             -153.10446      14.533307    
   5209000   4847.0406     -135.42137     -150.45807      0             -150.45807      15.0367      
   5210000   4759.5668     -132.77851     -147.54385      0             -147.54385      14.765335    
   5211000   4532.8168     -135.11811     -149.18002      0             -149.18002      14.061901    
   5212000   4623.0389     -134.5876      -148.92939      0             -148.92939      14.341792    
   5213000   4907.6289     -130.71597     -145.94063      0             -145.94063      15.22466     
   5214000   4979.0275     -130.90207     -146.34822      0             -146.34822      15.446156    
   5215000   4846.8341     -133.98331     -149.01937      0             -149.01937      15.036059    
   5216000   4943.8815     -132.16613     -147.50325      0             -147.50325      15.337124    
   5217000   4649.3775     -128.45388     -142.87738      0             -142.87738      14.423501    
   5218000   5314.2746     -128.18666     -144.67284      0             -144.67284      16.486174    
   5219000   4098.7791     -130.76239     -143.4778       0             -143.4778       12.715411    
   5220000   4922.8509     -132.16089     -147.43278      0             -147.43278      15.271882    
   5221000   5100.9755     -135.79311     -151.61757      0             -151.61757      15.824468    
   5222000   5242.0749     -136.18245     -152.44465      0             -152.44465      16.262193    
   5223000   4733.4263     -134.55047     -149.23471      0             -149.23471      14.684241    
   5224000   4897.3892     -135.96977     -151.16267      0             -151.16267      15.192894    
   5225000   4807.2041     -139.18463     -154.09775      0             -154.09775      14.913118    
   5226000   4808.7648     -135.2968      -150.21476      0             -150.21476      14.917959    
   5227000   4668.9321     -128.22591     -142.71007      0             -142.71007      14.484164    
   5228000   5009.3637     -133.17637     -148.71663      0             -148.71663      15.540266    
   5229000   4660.2812     -134.43195     -148.88928      0             -148.88928      14.457327    
   5230000   4967.0781     -131.66308     -147.07216      0             -147.07216      15.409086    
   5231000   5020.1535     -131.31152     -146.88525      0             -146.88525      15.573739    
   5232000   5032.9009     -135.3053      -150.91858      0             -150.91858      15.613284    
   5233000   4984.0803     -135.29777     -150.7596       0             -150.7596       15.461831    
   5234000   4862.591      -137.38768     -152.47262      0             -152.47262      15.084941    
   5235000   4823.7813     -135.29347     -150.25801      0             -150.25801      14.964544    
   5236000   5135.605      -134.62117     -150.55307      0             -150.55307      15.931897    
   5237000   4472.0155     -135.97259     -149.84587      0             -149.84587      13.873281    
   5238000   4749.578      -133.34121     -148.07556      0             -148.07556      14.734347    
   5239000   4541.528      -130.79808     -144.88701      0             -144.88701      14.088926    
   5240000   5085.586      -128.04875     -143.82547      0             -143.82547      15.776726    
   5241000   5273.5831     -133.18251     -149.54245      0             -149.54245      16.359939    
   5242000   5041.149      -136.501       -152.13987      0             -152.13987      15.638872    
   5243000   4956.8735     -136.98375     -152.36118      0             -152.36118      15.377429    
   5244000   5079.57       -135.77132     -151.52938      0             -151.52938      15.758063    
   5245000   5147.9614     -136.64019     -152.61042      0             -152.61042      15.97023     
   5246000   4806.525      -139.46584     -154.37685      0             -154.37685      14.911011    
   5247000   4725.6459     -137.21029     -151.87039      0             -151.87039      14.660104    
   5248000   5031.5024     -133.84101     -149.44995      0             -149.44995      15.608945    
   5249000   5100.7909     -135.71321     -151.53711      0             -151.53711      15.823895    
   5250000   4720.1468     -136.74661     -151.38966      0             -151.38966      14.643045    
   5251000   4973.4563     -139.59092     -155.01979      0             -155.01979      15.428872    
   5252000   4762.9032     -136.15279     -150.92847      0             -150.92847      14.775686    
   5253000   4986.0573     -135.6942      -151.16217      0             -151.16217      15.467964    
   5254000   4923.6665     -138.48355     -153.75796      0             -153.75796      15.274412    
   5255000   4559.3476     -134.7106      -148.85481      0             -148.85481      14.144206    
   5256000   4624.3948     -133.8255      -148.1715       0             -148.1715       14.345999    
   5257000   5134.886      -133.6221      -149.55177      0             -149.55177      15.929667    
   5258000   4672.6875     -138.28653     -152.78234      0             -152.78234      14.495814    
   5259000   4676.9542     -137.37388     -151.88294      0             -151.88294      14.509051    
   5260000   4896.5263     -139.76414     -154.95435      0             -154.95435      15.190217    
   5261000   4684.2159     -135.97672     -150.5083       0             -150.5083       14.531578    
   5262000   4898.3491     -135.47309     -150.66897      0             -150.66897      15.195872    
   5263000   4861.685      -135.55258     -150.63471      0             -150.63471      15.082131    
   5264000   4785.6634     -137.07417     -151.92047      0             -151.92047      14.846293    
   5265000   4509.5822     -136.54213     -150.53195      0             -150.53195      13.989822    
   5266000   4598.5972     -137.94238     -152.20835      0             -152.20835      14.265968    
   5267000   5005.1564     -136.97159     -152.4988       0             -152.4988       15.527214    
   5268000   5054.634      -138.36035     -154.04105      0             -154.04105      15.680705    
   5269000   4885.2799     -139.51379     -154.66912      0             -154.66912      15.155328    
   5270000   4880.8487     -143.7427      -158.88428      0             -158.88428      15.141581    
   5271000   4638.5272     -137.30967     -151.69951      0             -151.69951      14.389841    
   5272000   4992.4341     -135.66878     -151.15652      0             -151.15652      15.487746    
   5273000   4765.9743     -134.0283      -148.81352      0             -148.81352      14.785213    
   5274000   4533.2498     -133.63212     -147.69536      0             -147.69536      14.063245    
   5275000   4626.5251     -136.24825     -150.60086      0             -150.60086      14.352607    
   5276000   5259.8631     -137.43466     -153.75204      0             -153.75204      16.317376    
   5277000   4910.8752     -140.99978     -156.23451      0             -156.23451      15.234731    
   5278000   4728.817      -137.0175      -151.68744      0             -151.68744      14.669942    
   5279000   4790.8477     -137.42756     -152.28993      0             -152.28993      14.862376    
   5280000   4885.2263     -137.28235     -152.43752      0             -152.43752      15.155162    
   5281000   5130.9425     -138.57683     -154.49426      0             -154.49426      15.917433    
   5282000   4739.2319     -140.4591      -155.16135      0             -155.16135      14.702251    
   5283000   4699.6949     -141.57279     -156.15239      0             -156.15239      14.579598    
   5284000   4620.7498     -142.70767     -157.04236      0             -157.04236      14.334691    
   5285000   4757.2708     -139.84119     -154.59941      0             -154.59941      14.758212    
   5286000   4980.0128     -140.84815     -156.29736      0             -156.29736      15.449212    
   5287000   4790.472      -144.13801     -158.99922      0             -158.99922      14.86121     
   5288000   4931.7781     -139.97315     -155.27273      0             -155.27273      15.299576    
   5289000   4601.2322     -140.40743     -154.68158      0             -154.68158      14.274142    
   5290000   4824.2484     -138.35636     -153.32235      0             -153.32235      14.965993    
   5291000   4747.3379     -142.24491     -156.97231      0             -156.97231      14.727398    
   5292000   4465.1956     -137.49194     -151.34406      0             -151.34406      13.852124    
   5293000   4840.2802     -139.21758     -154.23331      0             -154.23331      15.015728    
   5294000   4629.1768     -134.59734     -148.95817      0             -148.95817      14.360834    
   5295000   4863.4515     -132.97637     -148.06398      0             -148.06398      15.087611    
   5296000   4892.6894     -137.36669     -152.545        0             -152.545        15.178314    
   5297000   4724.8434     -138.375       -153.03261      0             -153.03261      14.657615    
   5298000   4856.7818     -137.42859     -152.49551      0             -152.49551      15.06692     
   5299000   4943.854      -140.61751     -155.95455      0             -155.95455      15.337039    
   5300000   4861.2003     -136.80915     -151.88978      0             -151.88978      15.080627    
   5301000   5114.0827     -137.97314     -153.83827      0             -153.83827      15.86513     
   5302000   4951.0905     -134.41826     -149.77774      0             -149.77774      15.359488    
   5303000   4903.2882     -137.97529     -153.18649      0             -153.18649      15.211194    
   5304000   4949.6148     -137.66636     -153.02127      0             -153.02127      15.35491     
   5305000   4941.0403     -137.7692      -153.09751      0             -153.09751      15.32831     
   5306000   4574.0328     -138.32268     -152.51244      0             -152.51244      14.189764    
   5307000   4640.8646     -136.76527     -151.16236      0             -151.16236      14.397092    
   5308000   4688.8846     -133.99119     -148.53726      0             -148.53726      14.546062    
   5309000   4663.8469     -134.16187     -148.63026      0             -148.63026      14.468389    
   5310000   4672.0616     -132.50831     -147.00218      0             -147.00218      14.493873    
   5311000   4756.6911     -134.65567     -149.41208      0             -149.41208      14.756414    
   5312000   5344.8554     -135.22244     -151.80348      0             -151.80348      16.581043    
   5313000   4951.4239     -138.29397     -153.65449      0             -153.65449      15.360523    
   5314000   4723.7284     -137.78669     -152.44085      0             -152.44085      14.654156    
   5315000   4965.4746     -139.3847      -154.78882      0             -154.78882      15.404111    
   5316000   4843.5346     -143.48572     -158.51155      0             -158.51155      15.025824    
   5317000   5175.676      -143.63443     -159.69064      0             -159.69064      16.056207    
   5318000   5041.4738     -138.21157     -153.85145      0             -153.85145      15.639879    
   5319000   4821.0004     -140.39233     -155.34825      0             -155.34825      14.955917    
   5320000   4453.7297     -138.67375     -152.4903       0             -152.4903       13.816554    
   5321000   4776.1469     -137.93553     -152.7523       0             -152.7523       14.816771    
   5322000   4505.6323     -132.97799     -146.95555      0             -146.95555      13.977569    
   5323000   4928.9734     -137.10499     -152.39587      0             -152.39587      15.290876    
   5324000   4764.3027     -139.45252     -154.23255      0             -154.23255      14.780027    
   5325000   4681.2889     -135.91639     -150.43889      0             -150.43889      14.522498    
   5326000   4818.5458     -131.375       -146.3233       0             -146.3233       14.948302    
   5327000   4617.3163     -134.87031     -149.19434      0             -149.19434      14.324039    
   5328000   4773.1054     -134.37963     -149.18697      0             -149.18697      14.807335    
   5329000   4628.263      -138.20201     -152.56001      0             -152.56001      14.357999    
   5330000   4609.2473     -139.04133     -153.34033      0             -153.34033      14.299007    
   5331000   4937.5956     -140.46133     -155.77896      0             -155.77896      15.317624    
   5332000   4606.0334     -139.26448     -153.55352      0             -153.55352      14.289037    
   5333000   5103.2454     -139.75325     -155.58476      0             -155.58476      15.83151     
   5334000   4955.6218     -139.93005     -155.30359      0             -155.30359      15.373545    
   5335000   4947.9933     -140.68099     -156.03087      0             -156.03087      15.34988     
   5336000   4868.4989     -137.97062     -153.07389      0             -153.07389      15.103269    
   5337000   4821.9097     -137.69723     -152.65597      0             -152.65597      14.958738    
   5338000   4814.2276     -137.88206     -152.81696      0             -152.81696      14.934906    
   5339000   4867.5475     -135.78039     -150.88071      0             -150.88071      15.100317    
   5340000   4728.1498     -137.06978     -151.73765      0             -151.73765      14.667872    
   5341000   4570.2187     -134.59717     -148.7751       0             -148.7751       14.177931    
   5342000   4977.0071     -132.87061     -148.3105       0             -148.3105       15.439888    
   5343000   4662.3701     -130.7921      -145.25591      0             -145.25591      14.463807    
   5344000   5188.7165     -132.71301     -148.80968      0             -148.80968      16.096662    
   5345000   4947.7143     -141.14727     -156.49628      0             -156.49628      15.349014    
   5346000   4554.253      -135.70247     -149.83087      0             -149.83087      14.128402    
   5347000   4514.0024     -136.01532     -150.01886      0             -150.01886      14.003535    
   5348000   5072.5383     -137.1632      -152.89944      0             -152.89944      15.736249    
   5349000   4681.7226     -138.09134     -152.61519      0             -152.61519      14.523843    
   5350000   4620.0679     -138.49072     -152.8233       0             -152.8233       14.332575    
   5351000   4968.6212     -135.88403     -151.2979       0             -151.2979       15.413873    
   5352000   4673.6087     -137.87958     -152.37825      0             -152.37825      14.498672    
   5353000   4509.2753     -137.01191     -151.00078      0             -151.00078      13.98887     
   5354000   4705.5745     -131.11147     -145.7093       0             -145.7093       14.597838    
   5355000   4580.4652     -129.17138     -143.3811       0             -143.3811       14.209718    
   5356000   4860.2488     -130.70591     -145.78358      0             -145.78358      15.077675    
   5357000   4646.3678     -128.27596     -142.69012      0             -142.69012      14.414164    
   5358000   4993.9159     -129.73618     -145.22853      0             -145.22853      15.492343    
   5359000   4978.0685     -134.9279      -150.37108      0             -150.37108      15.443181    
   5360000   4644.1158     -133.19731     -147.60449      0             -147.60449      14.407178    
   5361000   4890.2467     -137.18222     -152.35295      0             -152.35295      15.170736    
   5362000   4594.855      -140.61307     -154.86743      0             -154.86743      14.254359    
   5363000   4510.7041     -139.67283     -153.66613      0             -153.66613      13.993302    
   5364000   4703.904      -137.65609     -152.24875      0             -152.24875      14.592656    
   5365000   4994.4368     -137.24873     -152.74269      0             -152.74269      15.493959    
   5366000   4723.3689     -133.97359     -148.62664      0             -148.62664      14.65304     
   5367000   4469.8907     -136.23893     -150.10562      0             -150.10562      13.866689    
   5368000   4813.5078     -136.4511      -151.38377      0             -151.38377      14.932673    
   5369000   4409.1442     -134.88123     -148.55947      0             -148.55947      13.678239    
   5370000   4660.188      -130.73948     -145.19651      0             -145.19651      14.457038    
   5371000   4595.3523     -133.88757     -148.14347      0             -148.14347      14.255902    
   5372000   5031.8953     -133.00787     -148.61804      0             -148.61804      15.610164    
   5373000   4580.6187     -135.92365     -150.13384      0             -150.13384      14.210194    
   5374000   4694.2437     -133.82988     -148.39256      0             -148.39256      14.562687    
   5375000   4908.7301     -134.5711      -149.79917      0             -149.79917      15.228076    
   5376000   4978.073      -134.1643      -149.6075       0             -149.6075       15.443195    
   5377000   4623.6708     -136.77958     -151.12334      0             -151.12334      14.343753    
   5378000   4710.116      -135.07881     -149.69074      0             -149.69074      14.611927    
   5379000   4665.4328     -138.79327     -153.26658      0             -153.26658      14.473308    
   5380000   4916.6383     -141.21536     -156.46797      0             -156.46797      15.252609    
   5381000   5037.5448     -141.27678     -156.90447      0             -156.90447      15.627691    
   5382000   4187.4397     -141.62148     -154.61194      0             -154.61194      12.990458    
   5383000   4763.2927     -136.62064     -151.39753      0             -151.39753      14.776894    
   5384000   4685.7956     -136.64956     -151.18604      0             -151.18604      14.536479    
   5385000   4912.6815     -134.45683     -149.69717      0             -149.69717      15.240334    
   5386000   4635.9288     -135.20173     -149.58351      0             -149.58351      14.38178     
   5387000   4631.99       -138.39331     -152.76287      0             -152.76287      14.369561    
   5388000   4523.3268     -135.41207     -149.44453      0             -149.44453      14.032461    
   5389000   4553.0212     -130.67637     -144.80095      0             -144.80095      14.12458     
   5390000   4834.1776     -130.77903     -145.77582      0             -145.77582      14.996796    
   5391000   4748.8357     -135.31418     -150.04622      0             -150.04622      14.732045    
   5392000   4855.8988     -133.16902     -148.2332       0             -148.2332       15.06418     
   5393000   4580.9369     -134.08462     -148.2958       0             -148.2958       14.211182    
   5394000   4590.0328     -133.78691     -148.0263       0             -148.0263       14.239399    
   5395000   5021.4154     -131.64696     -147.22461      0             -147.22461      15.577653    
   5396000   4684.748      -135.00565     -149.53888      0             -149.53888      14.533229    
   5397000   4338.738      -134.16617     -147.626        