LAMMPS (7 Feb 2024 - Update 1)
OMP_NUM_THREADS environment is not set. Defaulting to 1 thread. (src/comm.cpp:98)
  using 1 OpenMP thread(s) per MPI task
units metal
dimension 3
boundary p p p
atom_style charge

# Define the lattice structure
lattice bcc 3.52
Lattice spacing in x,y,z = 3.52 3.52 3.52

# Define the region where atoms will be created
region my_region block 0 10 0 10 0 10

# Create the simulation box
create_box 2 my_region
Created orthogonal box = (0 0 0) to (35.2 35.2 35.2)
  1 by 1 by 1 MPI processor grid

# Populate the simulation box with atoms according to the defined lattice
create_atoms 2 random 100 200093 my_region
Created 100 atoms
  using lattice units in orthogonal box = (0 0 0) to (35.2 35.2 35.2)
  create_atoms CPU = 0.001 seconds
mass * 183.84

# Define interatomic potential
pair_style eam/fs
pair_coeff * * ./w.eam2.fs W W

velocity   all create  0.000000001 1563967 rot yes dist gaussian

############################################
#              CLI Variables               #
############################################
variable 		iter index 10000000        #
variable 		iterther index 1000000     #
variable 		iexport index 5000         #
variable 		tempchauf index 5000       #
variable 		Tdamp index 0.001          #
variable 		timestep index 0.0001      #



# ---------- Run MD Heating ---------------------

fix              2 all nve
fix              3 all temp/berendsen  0.0 ${tempchauf} ${Tdamp}
fix              3 all temp/berendsen  0.0 5000 ${Tdamp}
fix              3 all temp/berendsen  0.0 5000 0.001
#fix              4 all momentum 1 linear 1 1 1 angular rescale


timestep	${timestep}
timestep	0.0001


thermo 1000
thermo_style custom step  temp etotal epair ebond pe ke

dump 			1 all cfg 1000 ./dump/fcc_1/dump.tensile_*.cfg mass type xs ys zs vx vy vz mass q id
dump			2 all atom 1000 ./tmp/fcc_1/tmp.dump
dump_modify     1 element W W

run				${iter}
run				10000000
Neighbor list info ...
  update: every = 1 steps, delay = 0 steps, check = yes
  max neighbors/atom: 2000, page size: 100000
  master list distance cutoff = 7.5
  ghost atom cutoff = 7.5
  binsize = 3.75, bins = 10 10 10
  1 neighbor lists, perpetual/occasional/extra = 1 0 0
  (1) pair eam/fs, perpetual
      attributes: half, newton on
      pair build: half/bin/atomonly/newton
      stencil: half/bin/3d
      bin: standard
Per MPI rank memory allocation (min/avg/max) = 3.446 | 3.446 | 3.446 Mbytes
   Step          Temp          TotEng         E_pair         E_bond         PotEng         KinEng    
         0   1e-09          4702.7216      4702.7216      0              4702.7216      1.2796754e-11
      1000   6.1353133     -133.73719     -133.8157       0             -133.8157       0.078512097  
      2000   6.1104276     -141.17458     -141.25277      0             -141.25277      0.078193641  
      3000   6.9174435     -148.62503     -148.71355      0             -148.71355      0.088520825  
      4000   7.8466031     -156.62798     -156.72839      0             -156.72839      0.10041105   
      5000   8.7595087     -165.25075     -165.36284      0             -165.36284      0.11209328   
      6000   9.1962457     -174.09219     -174.20988      0             -174.20988      0.1176821    
      7000   9.6461931     -182.87118     -182.99462      0             -182.99462      0.12343996   
      8000   10.096974     -191.56619     -191.6954       0             -191.6954       0.1292085    
      9000   10.334049     -199.991       -200.12324      0             -200.12324      0.13224229   
     10000   10.333579     -208.11813     -208.25037      0              105512.15      561.26958    
      3000   1313.8427      65738.988      65399.503      0              65399.503      339.48517    
      4000   1040.8944      42662.524      42393.567      0              42393.567      268.95778    
      5000   947.88568      27288.986      27044.061      0              27044.061      244.92516    
      6000   929.08868      16254.355      16014.287      0              16014.287      240.06818    
      7000   946.63933      8053.2755      7808.6724      0              7808.6724      244.60311    
      8000   985.95016      1889.337       1634.5763      0              1634.5763      254.76068    
      9000   1040.8679     -2768.6841     -3037.635       0             -3037.635       268.95092    
     10000   1107.8446     -6314.3777     -6600.6348      0             -6600.6348      286.25711    
     11000   1183.4936     -9043.2438     -9349.0479      0             -9349.0479      305.80413    
     12000   1264.4393     -11160.817     -11487.537      0             -11487.537      326.71976    
     13000   1349.0909     -12786.704     -13135.297      0             -13135.297      348.59299    
     14000   1436.2698     -14009.393     -14380.512      0             -14380.512      371.11924    
     15000   1523.5741     -14861.906     -15255.584      0             -15255.584      393.67788    
     16000   1611.0913     -15359.798     -15776.09       0             -15776.09       416.29155    
     17000   1698.9317     -15493.249     -15932.238      0             -15932.238      438.9887     
     18000   1791.5693     -15342.943     -15805.868      0             -15805.868      462.92543    
     19000   1887.6297     -15033.014     -15520.761      0             -15520.761      487.74658    
     20000   1989.2044     -14709.095     -15223.088      0             -15223.088      513.99257    
     21000   2096.6479     -14479.065     -15020.82       0             -15020.82       541.755      
     22000   2202.2091     -14401.952     -14970.983      0             -14970.983      569.03108    
     23000   2305.3925     -14473.635     -15069.328      0             -15069.328      595.69274    
     24000   2401.5814     -14585.23      -15205.777      0             -15205.777      620.54709    
     25000   2501.222      -14647.57      -15293.863      0             -15293.863      646.29333    
     26000   2603.2292     -14674.276     -15346.927      0             -15346.927      672.65108    
     27000   2699.4709     -14660.46      -15357.979      0             -15357.979      697.51905    
     28000   2796.741      -14565.506     -15288.159      0             -15288.159      722.65279    
     29000   2901.2993     -14510.536     -15260.206      0             -15260.206      749.66973    
     30000   2999.6457     -14477.685     -15252.767      0             -15252.767      775.08153    
     31000   3099.3436     -14416.636     -15217.479      0             -15217.479      800.84259    
     32000   3197.6131     -14309.57      -15135.804      0             -15135.804      826.23455    
     33000   3294.4523     -14233.049     -15084.306      0             -15084.306      851.25691    
     34000   3395.5863     -14059.011     -14936.4        0             -14936.4        877.38904    
     35000   3500.0847     -13949.46      -14853.851      0             -14853.851      904.39048    
     36000   3596.354      -13886.518     -14815.784      0             -14815.784      929.26562    
     37000   3692.3535     -13872.238     -14826.309      0             -14826.309      954.07103    
     38000   3793.9092     -13820.836     -14801.148      0             -14801.148      980.31211    
     39000   3898.8534     -13760.244     -14767.672      0             -14767.672      1007.4287    
     40000   3998.983      -13738.1       -14771.401      0             -14771.401      1033.3013    
     41000   4100.8012     -13713.978     -14773.588      0             -14773.588      1059.6103    
     42000   4193.8033     -13649.29      -14732.931      0             -14732.931      1083.6412    
     43000   4299.7417     -13578.128     -14689.143      0             -14689.143      1111.0147    
     44000   4398.9849     -13495.968     -14632.626      0             -14632.626      1136.6582    
     45000   4500.3047     -13374.459     -14537.297      0             -14537.297      1162.8384    
     46000   4596.8174     -13262.725     -14450.501      0             -14450.501      1187.7764    
     47000   4693.1472     -13153.264     -14365.932      0             -14365.932      1212.6671    
     48000   4799.8067     -13009.839     -14250.066      0             -14250.066      1240.227     
     49000   4894.5195     -12942.942     -14207.642      0             -14207.642      1264.6999    
     50000   4997.4557     -12855.957     -14147.255      0             -14147.255      1291.2977    
Loop time of 2004.75 on 1 procs for 50000 steps with 2000 atoms

Performance: 0.215 ns/day, 111.375 hours/ns, 24.941 timesteps/s, 49.882 katom-step/s
99.8% CPU use with 1 MPI tasks x 1 OpenMP threads

MPI task timing breakdown:
Section |  min time  |  avg time  |  max time  |%varavg| %total
---------------------------------------------------------------
Pair    | 1965.1     | 1965.1     | 1965.1     |   0.0 | 98.02
Neigh   | 4.3981     | 4.3981     | 4.3981     |   0.0 |  0.22
Comm    | 2.9212     | 2.9212     | 2.9212     |   0.0 |  0.15
Output  | 2.701      | 2.701      | 2.701      |   0.0 |  0.13
Modify  | 27.475     | 27.475     | 27.475     |   0.0 |  1.37
Other   |            | 2.193      |            |       |  0.11

Nlocal:           2000 ave        2000 max        2000 min
Histogram: 1 0 0 0 0 0 0 0 0 0
Nghost:           1375 ave        1375 max        1375 min
Histogram: 1 0 0 0 0 0 0 0 0 0
Neighs:          36434 ave       36434 max       36434 min
Histogram: 1 0 0 0 0 0 0 0 0 0

Total # of neighbors = 36434
Ave neighs/atom = 18.217
Neighbor list builds = 578
Dangerous builds = 82

write_restart ./endconf/${N}/endconf*1.restart
write_restart ./endconf/2000/endconf*1.restart
System init for write_restart ...

# ---------- Run MD wait phase: relaxation at Tmax ---------------------

unfix 3

thermo 1000
thermo_style custom step  temp etotal epair ebond pe ke
fix             6 all temp/berendsen  ${tempchauf} ${tempchauf} ${Tdamp}
fix             6 all temp/berendsen  5000 ${tempchauf} ${Tdamp}
fix             6 all temp/berendsen  5000 5000 ${Tdamp}
fix             6 all temp/berendsen  5000 5000 0.001
run		${iterther}
run		10000
Per MPI rank memory allocation (min/avg/max) = 8.944 | 8.944 | 8.944 Mbytes
   Step          Temp          TotEng         E_pair         E_bond         PotEng         KinEng    
     50000   4997.4557     -12855.957     -14147.255      0             -14147.255      1291.2977    
     51000   4997.3153     -12782.09      -14073.352      0             -14073.352      1291.2614    
     52000   4997.2834     -12763.422     -14054.675      0             -14054.675      1291.2532    
     53000   4995.9481     -12754.326     -14045.234      0             -14045.234      1290.9082    
     54000   5006.8566     -12783.44      -14077.167      0             -14077.167      1293.7268    
     55000   4997.5756     -12805.167     -14096.496      0             -14096.496      1291.3287    
     56000   4998.1361     -12802.453     -14093.926      0             -14093.926      1291.4735    
     57000   5004.565      -12826.689     -14119.824      0             -14119.824      1293.1347    
     58000   5000.4091     -12897.01      -14189.071      0             -14189.071      1292.0609    
     59000   5007.891      -12828.416     -14122.41       0             -14122.41       1293.9941    
     60000   5003.5758     -12838.885     -14131.764      0             -14131.764      1292.8791    
Loop time of 270.802 on 1 procs for 10000 steps with 2000 atoms

Performance: 0.319 ns/day, 75.223 hours/ns, 36.927 timesteps/s, 73.855 katom-step/s
99.6% CPU use with 1 MPI tasks x 1 OpenMP threads

MPI task timing breakdown:
Section |  min time  |  avg time  |  max time  |%varavg| %total
---------------------------------------------------------------
Pair    | 262.86     | 262.86     | 262.86     |   0.0 | 97.07
Neigh   | 0.77067    | 0.77067    | 0.77067    |   0.0 |  0.28
Comm    | 0.5576     | 0.5576     | 0.5576     |   0.0 |  0.21
Output  | 0.42918    | 0.42918    | 0.42918    |   0.0 |  0.16
Modify  | 5.7592     | 5.7592     | 5.7592     |   0.0 |  2.13
Other   |            | 0.4211     |            |       |  0.16

Nlocal:           2000 ave        2000 max        2000 min
Histogram: 1 0 0 0 0 0 0 0 0 0
Nghost:           1331 ave        1331 max        1331 min
Histogram: 1 0 0 0 0 0 0 0 0 0
Neighs:          36619 ave       36619 max       36619 min
Histogram: 1 0 0 0 0 0 0 0 0 0

Total # of neighbors = 36619
Ave neighs/atom = 18.3095
Neighbor list builds = 137
Dangerous builds = 0

write_restart ./endconf/${N}/endconf*2.restart
write_restart ./endconf/2000/endconf*2.restart
System init for write_restart ...

# ---------- Run MD cooling phase down to T=0K ---------------------
unfix 6

thermo 1000
thermo_style custom step  temp etotal epair ebond pe ke
fix             7 all temp/berendsen  ${tempchauf} 0.0 ${Tdamp}
fix             7 all temp/berendsen  5000 0.0 ${Tdamp}
fix             7 all temp/berendsen  5000 0.0 0.001
run		${iter}
run		50000
Per MPI rank memory allocation (min/avg/max) = 8.944 | 8.944 | 8.944 Mbytes
   Step          Temp          TotEng         E_pair         E_bond         PotEng         KinEng    
     60000   5003.5758     -12838.885     -14131.764      0             -14131.764      1292.8791    
     61000   4902.6547     -12825.317     -14092.119      0             -14092.119      1266.802     
     62000   4801.085      -12986.888     -14227.446      0             -14227.446      1240.5573    
     63000   4703.0063     -12984.892     -14200.107      0             -14200.107      1215.2146    
     64000   4598.716      -13023.17      -14211.437      0             -14211.437      1188.267     
     65000   4505.8874     -13109.908     -14274.189      0             -14274.189      1164.2809    
     66000   4405.6897     -13148.188     -14286.579      0             -14286.579      1138.3907    
     67000   4298.2748     -13235.263     -14345.898      0             -14345.898      1110.6357    
     68000   4206.5582     -13286.132     -14373.069      0             -14373.069      1086.9369    
     69000   4102.7277     -13406.312     -14466.42       0             -14466.42       1060.108     
     70000   4004.3943     -13506.554     -14541.253      0             -14541.253      1034.6996    
     71000   3901.4877     -13597.162     -14605.272      0             -14605.272      1008.1094    
     72000   3803.3198     -13689.237     -14671.981      0             -14671.981      982.74373    
     73000   3699.3089     -13749.713     -14705.581      0             -14705.581      955.86825    
     74000   3603.5403     -13849.655     -14780.777      0             -14780.777      931.12249    
     75000   3502.0748     -13945.089     -14849.993      0             -14849.993      904.90473    
     76000   3400.9833     -13993.875     -14872.659      0             -14872.659      878.78359    
     77000   3301.5628     -14066.328     -14919.422      0             -14919.422      853.09421    
     78000   3201.1374     -14117.621     -14944.766      0             -14944.766      827.1452     
     79000   3104.2693     -14165.014     -14967.13       0             -14967.13       802.11534    
     80000   3004.7036     -14271.203     -15047.592      0             -15047.592      776.38845    
     81000   2900.4486     -14348.831     -15098.281      0             -15098.281      749.4499     
     82000   2805.2317     -14410.132     -15134.979      0             -15134.979      724.8467     
     83000   2702.831      -14489.766     -15188.154      0             -15188.154      698.38729    
     84000   2601.6405     -14603.397     -15275.637      0             -15275.637      672.24057    
     85000   2502.4115     -14679.906     -15326.506      0             -15326.506      646.60068    
     86000   2404.8858     -14731.235     -15352.636      0             -15352.636      621.40091    
     87000   2301.2341     -14815.966     -15410.584      0             -15410.584      594.61824    
     88000   2200.8385     -14869.642     -15438.319      0             -15438.319      568.67693    
     89000   2100.4388     -14928.213     -15470.947      0             -15470.947      542.73454    
     90000   2001.1373     -14990.528     -15507.604      0             -15507.604      517.07592    
     91000   1901.6776     -15075.093     -15566.47       0             -15566.47       491.37644    
     92000   1801.754      -15133.317     -15598.874      0             -15598.874      465.55707    
     93000   1702.7629     -15190.246     -15630.224      0             -15630.224      439.97867    
     94000   1602.0551     -15253.537     -15667.494      0             -15667.494      413.95666    
     95000   1500.8676     -15324.135     -15711.946      0             -15711.946      387.81071    
     96000   1403.5841     -15383.612     -15746.286      0             -15746.286      362.67354    
     97000   1302.4476     -15461.238     -15797.779      0             -15797.779      336.54077    
     98000   1201.9817     -15526.795     -15837.376      0             -15837.376      310.58129    
     99000   1101.1567     -15577.71      -15862.239      0             -15862.239      284.52901    
    100000   1002.276      -15642.448     -15901.427      0             -15901.427      258.97912    
    101000   901.85032     -15700.765     -15933.795      0             -15933.795      233.03003    
    102000   802.50704     -15758.045     -15965.406      0             -15965.406      207.36062    
    103000   702.49992     -15815.63      -15997.15       0             -15997.15       181.51968    
    104000   602.54654     -15873.071     -16028.763      0             -16028.763      155.69262    
    105000   502.5217      -15933.893     -16063.74       0             -16063.74       129.8471     
    106000   402.80741     -15987.988     -16092.07       0             -16092.07       104.08182    
    107000   301.58898     -16044.848     -16122.776      0             -16122.776      77.927886    
    108000   201.94908     -16104.616     -16156.797      0             -16156.797      52.181831    
    109000   101.66479     -16156.093     -16182.362      0             -16182.362      26.26927     
    110000   1.2256225     -16204.209     -16204.526      0             -16204.526      0.31668985   
Loop time of 1517.25 on 1 procs for 50000 steps with 2000 atoms

Performance: 0.285 ns/day, 84.291 hours/ns, 32.954 timesteps/s, 65.909 katom-step/s
99.7% CPU use with 1 MPI tasks x 1 OpenMP threads

MPI task timing breakdown:
Section |  min time  |  avg time  |  max time  |%varavg| %total
---------------------------------------------------------------
Pair    | 1479.1     | 1479.1     | 1479.1     |   0.0 | 97.48
Neigh   | 2.2617     | 2.2617     | 2.2617     |   0.0 |  0.15
Comm    | 2.9102     | 2.9102     | 2.9102     |   0.0 |  0.19
Output  | 2.4983     | 2.4983     | 2.4983     |   0.0 |  0.16
Modify  | 28.416     | 28.416     | 28.416     |   0.0 |  1.87
Other   |            | 2.099      |            |       |  0.14

Nlocal:           2000 ave        2000 max        2000 min
Histogram: 1 0 0 0 0 0 0 0 0 0
Nghost:           1207 ave        1207 max        1207 min
Histogram: 1 0 0 0 0 0 0 0 0 0
Neighs:          44250 ave       44250 max       44250 min
Histogram: 1 0 0 0 0 0 0 0 0 0

Total # of neighbors = 44250
Ave neighs/atom = 22.125
Neighbor list builds = 453
Dangerous builds = 0
write_restart ./endconf/${N}/endconf*3.restart
write_restart ./endconf/2000/endconf*3.restart
System init for write_restart ...



Total wall time: 1:03:19
351.23637      1.0678971    
    169000   84.041817     -350.27448     -351.34994      0             -351.34994      1.0754625    
    170000   86.189155     -350.63958     -351.74252      0             -351.74252      1.1029414    
    171000   86.172793     -351.19528     -352.29802      0             -352.29802      1.1027321    
    172000   84.300989     -350.97885     -352.05763      0             -352.05763      1.078779     
    173000   86.960511     -350.84332     -351.95613      0             -351.95613      1.1128123    
    174000   86.276658     -350.68519     -351.78925      0             -351.78925      1.1040612    
    175000   88.995575     -350.58713     -351.72599      0             -351.72599      1.1388545    
    176000   85.948749     -350.74728     -351.84714      0             -351.84714      1.099865     
    177000   88.287846     -350.82812     -351.95792      0             -351.95792      1.1297979    
    178000   90.259784     -350.2465      -351.40153      0             -351.40153      1.1550323    
    179000   88.564598     -350.89206     -352.02539      0             -352.02539      1.1333394    
    180000   90.195554     -351.00051     -352.15472      0             -352.15472      1.1542103    
    181000   89.480463     -350.56609     -351.71115      0             -351.71115      1.1450595    
    182000   92.357093     -349.92284     -351.10471      0             -351.10471      1.181871     
    183000   90.513968     -350.47956     -351.63785      0             -351.63785      1.158285     
    184000   92.767005     -350.5426      -351.72971      0             -351.72971      1.1871166    
    185000   90.968962     -350.42493     -351.58903      0             -351.58903      1.1641075    
    186000   93.734406     -351.05079     -352.25029      0             -352.25029      1.1994962    
    187000   93.652515     -350.48177     -351.68022      0             -351.68022      1.1984482    
    188000   94.823464     -350.44371     -351.65715      0             -351.65715      1.2134326    
    189000   94.862292     -350.76138     -351.97531      0             -351.97531      1.2139295    
    190000   93.829851     -349.91431     -351.11502      0             -351.11502      1.2007176    
    191000   94.662671     -350.93966     -352.15103      0             -352.15103      1.2113749    
    192000   93.67919      -350.65896     -351.85775      0             -351.85775      1.1987896    
    193000   97.476442     -350.20068     -351.44806      0             -351.44806      1.2473821    
    194000   96.295475     -351.04652     -352.27879      0             -352.27879      1.2322695    
    195000   97.021633     -350.59519     -351.83675      0             -351.83675      1.241562     
    196000   97.47321      -349.98747     -351.23481      0             -351.23481      1.2473407    
    197000   97.106931     -350.31959     -351.56225      0             -351.56225      1.2426535    
    198000   98.099302     -350.75461     -352.00996      0             -352.00996      1.2553527    
    199000   102.10995     -350.27661     -351.58328      0             -351.58328      1.3066759    
    200000   100.04679     -350.83237     -352.11264      0             -352.11264      1.2802742    
    201000   99.826086     -350.51794     -351.79539      0             -351.79539      1.2774499    
    202000   103.02436     -349.94453     -351.26291      0             -351.26291      1.3183775    
    203000   101.51144     -350.61901     -351.91803      0             -351.91803      1.299017     
    204000   100.61131     -350.26057     -351.54806      0             -351.54806      1.2874982    
    205000   103.70396     -350.17591     -351.50299      0             -351.50299      1.3270741    
    206000   103.0094      -349.59709     -350.91528      0             -350.91528      1.318186     
    207000   103.75727     -350.28235     -351.6101       0             -351.6101       1.3277563    
    208000   103.99751     -349.67664     -351.00747      0             -351.00747      1.3308305    
    209000   105.07374     -349.75443     -351.09904      0             -351.09904      1.3446028    
    210000   104.97872     -350.63109     -351.97448      0             -351.97448      1.3433869    
    211000   103.72992     -350.30901     -351.63642      0             -351.63642      1.3274064    
    212000   107.67555     -350.02022     -351.39812      0             -351.39812      1.3778975    
    213000   105.88306     -350.37835     -351.73331      0             -351.73331      1.3549596    
    214000   106.50733     -350.19252     -351.55547      0             -351.55547      1.3629481    
    215000   107.88862     -350.35445     -351.73507      0             -351.73507      1.3806242    
    216000   109.07413     -349.35305     -350.74884      0             -350.74884      1.3957949    
    217000   108.31445     -350.39615     -351.78222      0             -351.78222      1.3860734    
    218000   109.60014     -349.89132     -351.29385      0             -351.29385      1.4025261    
    219000   108.65836     -350.63753     -352.02801      0             -352.02801      1.3904743    
    220000   110.58389     -350.16165     -351.57676      0             -351.57676      1.4151149    
    221000   111.68303     -349.92843     -351.35761      0             -351.35761      1.4291804    
    222000   110.64958     -349.36102     -350.77698      0             -350.77698      1.4159555    
    223000   110.41305     -350.65388     -352.06681      0             -352.06681      1.4129287    
    224000   111.38371     -349.77367     -351.19902      0             -351.19902      1.42535      
    225000   110.4539      -350.48362     -351.89707      0             -351.89707      1.4134514    
    226000   112.75998     -350.19311     -351.63607      0             -351.63607      1.4429617    
    227000   113.89326     -350.45902     -351.91649      0             -351.91649      1.4574641    
    228000   115.83125     -350.40685     -351.88911      0             -351.88911      1.482264     
    229000   114.18678     -349.9383      -351.39952      0             -351.39952      1.4612201    
    230000   115.99303     -350.0458      -351.53013      0             -351.53013      1.4843344    
    231000   115.48843     -349.93628     -351.41415      0             -351.41415      1.4778771    
    232000   116.19448     -350.4745      -351.96142      0             -351.96142      1.4869122    
    233000   116.84409     -350.33901     -351.83424      0             -351.83424      1.4952251    
    234000   114.33058     -349.78288     -351.24594      0             -351.24594      1.4630603    
    235000   117.012       -350.35794     -351.85532      0             -351.85532      1.4973738    
    236000   117.09144     -350.05138     -351.54977      0             -351.54977      1.4983904    
    237000   118.82762     -350.18769     -351.7083       0             -351.7083       1.5206079    
    238000   119.31394     -349.76812     -351.29495      0             -351.29495      1.5268312    
    239000   119.65728     -350.34581     -351.87704      0             -351.87704      1.5312248    
    240000   121.20771     -349.9854      -351.53647      0             -351.53647      1.5510653    
    241000   121.36371     -350.35423     -351.90729      0             -351.90729      1.5530616    
    242000   120.59555     -350.0043      -351.54753      0             -351.54753      1.5432316    
    243000   119.80143     -350.59188     -352.12495      0             -352.12495      1.5330695    
    244000   123.1132      -350.16025     -351.73569      0             -351.73569      1.5754494    
    245000   122.15761     -349.90949     -351.47271      0             -351.47271      1.5632209    
    246000   122.07485     -350.35444     -351.91661      0             -351.91661      1.5621619    
    247000   124.56023     -349.6525      -351.24646      0             -351.24646      1.5939667    
    248000   123.71177     -350.05446     -351.63757      0             -351.63757      1.5831092    
    249000   125.44293     -350.34859     -351.95385      0             -351.95385      1.6052624    
    250000   125.7552      -349.59914     -351.2084       0             -351.2084       1.6092583    
    251000   125.33312     -350.36928     -351.97314      0             -351.97314      1.6038572    
    252000   127.82283     -349.7849      -351.42061      0             -351.42061      1.6357174    
    253000   126.29017     -349.98109     -351.5972       0             -351.5972       1.6161043    
    254000   127.32461     -349.50703     -351.13637      0             -351.13637      1.6293418    
    255000   127.4365      -349.98888     -351.61965      0             -351.61965      1.6307736    
    256000   127.1482      -349.81302     -351.44011      0             -351.44011      1.6270843    
    257000   129.41012     -349.94626     -351.60229      0             -351.60229      1.6560296    
    258000   128.57225     -350.11532     -351.76063      0             -351.76063      1.6453075    
    259000   128.8574      -350.04589     -351.69485      0             -351.69485      1.6489564    
    260000   129.97713     -349.58158     -351.24486      0             -351.24486      1.6632854    
    261000   131.9486      -349.92647     -351.61499      0             -351.61499      1.6885139    
    262000   130.10119     -349.37362     -351.03849      0             -351.03849      1.6648729    
    263000   131.08917     -350.1566      -351.83411      0             -351.83411      1.6775158    
    264000   131.56271     -349.4408      -351.12438      0             -351.12438      1.6835757    
    265000   130.16808     -349.86842     -351.53415      0             -351.53415      1.6657289    
    266000   133.04821     -349.85111     -351.55369      0             -351.55369      1.7025852    
    267000   134.77968     -350.00318     -351.72792      0             -351.72792      1.7247425    
    268000   134.40538     -349.34824     -351.0682       0             -351.0682       1.7199526    
    269000   133.47797     -349.66928     -351.37736      0             -351.37736      1.7080848    
    270000   136.83308     -349.93679     -351.68781      0             -351.68781      1.7510193    
    271000   135.09803     -350.02713     -351.75595      0             -351.75595      1.7288163    
    272000   137.88692     -349.91525     -351.67976      0             -351.67976      1.764505     
    273000   137.16552     -349.46396     -351.21923      0             -351.21923      1.7552735    
    274000   136.69284     -350.12824     -351.87747      0             -351.87747      1.7492248    
    275000   136.82128     -349.58379     -351.33466      0             -351.33466      1.7508683    
    276000   137.14811     -349.83988     -351.59493      0             -351.59493      1.7550507    
    277000   138.77666     -349.62134     -351.39723      0             -351.39723      1.7758908    
    278000   140.30312     -349.36652     -351.16194      0             -351.16194      1.7954246    
    279000   138.44719     -350.23519     -352.00686      0             -352.00686      1.7716746    
    280000   141.70909     -349.83073     -351.64415      0             -351.64415      1.8134165    
    281000   138.98977     -349.36055     -351.13917      0             -351.13917      1.778618     
    282000   140.39632     -349.75883     -351.55545      0             -351.55545      1.7966173    
    283000   141.42306     -349.67885     -351.48861      0             -351.48861      1.8097562    
    284000   142.27245     -349.79302     -351.61365      0             -351.61365      1.8206256    
    285000   142.45435     -349.40302     -351.22597      0             -351.22597      1.8229534    
    286000   144.37278     -349.79764     -351.64514      0             -351.64514      1.847503     
    287000   143.10563     -349.62012     -351.4514       0             -351.4514       1.8312876    
    288000   143.20765     -350.17619     -352.00878      0             -352.00878      1.8325931    
    289000   143.28488     -349.28853     -351.12211      0             -351.12211      1.8335814    
    290000   144.73        -349.6139      -351.46597      0             -351.46597      1.8520743    
    291000   145.27764     -349.20898     -351.06806      0             -351.06806      1.8590823    
    292000   146.83135     -349.61696     -351.49593      0             -351.49593      1.8789648    
    293000   146.59878     -349.46258     -351.33856      0             -351.33856      1.8759886    
    294000   144.64169     -349.72188     -351.57283      0             -351.57283      1.8509441    
    295000   146.28367     -349.98223     -351.85419      0             -351.85419      1.8719562    
    296000   148.49436     -349.46365     -351.3639       0             -351.3639       1.9002458    
    297000   148.10311     -349.50299     -351.39822      0             -351.39822      1.8952391    
    298000   148.54163     -349.65189     -351.55274      0             -351.55274      1.9008507    
    299000   150.79225     -349.23251     -351.16216      0             -351.16216      1.9296513    
    300000   149.83292     -349.52146     -351.43883      0             -351.43883      1.917375     
    301000   150.49662     -349.55391     -351.47978      0             -351.47978      1.9258683    
    302000   150.52746     -348.97262     -350.89888      0             -350.89888      1.926263     
    303000   150.90318     -349.60666     -351.53773      0             -351.53773      1.931071     
    304000   150.07216     -349.39472     -351.31515      0             -351.31515      1.9204365    
    305000   151.95336     -349.40168     -351.34619      0             -351.34619      1.9445098    
    306000   153.02493     -349.39458     -351.35281      0             -351.35281      1.9582224    
    307000   152.77996     -349.38043     -351.33551      0             -351.33551      1.9550876    
    308000   156.14888     -348.99369     -350.99189      0             -350.99189      1.9981989    
    309000   154.18819     -349.09196     -351.06507      0             -351.06507      1.9731083    
    310000   155.97114     -349.67553     -351.67146      0             -351.67146      1.9959243    
    311000   154.40392     -349.26967     -351.24554      0             -351.24554      1.975869     
    312000   155.83485     -349.25888     -351.25306      0             -351.25306      1.9941803    
    313000   155.07451     -349.10309     -351.08754      0             -351.08754      1.9844504    
    314000   156.42012     -349.94324     -351.94491      0             -351.94491      2.0016698    
    315000   158.30474     -349.48406     -351.50985      0             -351.50985      2.0257869    
    316000   158.47184     -349.2717      -351.29962      0             -351.29962      2.0279252    
    317000   159.69516     -349.62366     -351.66724      0             -351.66724      2.0435798    
    318000   160.74913     -348.82418     -350.88125      0             -350.88125      2.0570672    
    319000   159.39702     -349.14932     -351.18909      0             -351.18909      2.0397644    
    320000   159.62831     -349.88644     -351.92916      0             -351.92916      2.0427242    
    321000   161.35351     -348.58969     -350.65449      0             -350.65449      2.0648012    
    322000   160.63058     -349.65136     -351.70691      0             -351.70691      2.05555      
    323000   160.70259     -349.56652     -351.623        0             -351.623        2.0564715    
    324000   163.12941     -349.02387     -351.1114       0             -351.1114       2.0875269    
    325000   162.4946      -349.61592     -351.69532      0             -351.69532      2.0794035    
    326000   163.58274     -349.20667     -351.3          0             -351.3          2.0933281    
    327000   163.44512     -349.03158     -351.12315      0             -351.12315      2.091567     
    328000   164.09347     -349.42428     -351.52414      0             -351.52414      2.0998639    
    329000   163.86131     -348.96472     -351.06161      0             -351.06161      2.096893     
    330000   163.57133     -348.81344     -350.90662      0             -350.90662      2.0931821    
    331000   166.49608     -349.52133     -351.65193      0             -351.65193      2.1306094    
    332000   166.06005     -349.91119     -352.03622      0             -352.03622      2.1250297    
    333000   168.7856      -352.58207     -354.74198      0             -354.74198      2.1599079    
    334000   165.47829     -353.57178     -355.68937      0             -355.68937      2.117585     
    335000   169.14189     -352.56906     -354.73353      0             -354.73353      2.1644672    
    336000   166.77138     -353.65204     -355.78618      0             -355.78618      2.1341324    
    337000   168.46503     -352.08698     -354.24278      0             -354.24278      2.1558056    
    338000   167.59154     -353.45545     -355.60008      0             -355.60008      2.1446278    
    339000   169.29905     -355.41613     -357.5826       0             -357.5826       2.1664784    
    340000   170.4353      -356.20405     -358.38507      0             -358.38507      2.1810187    
    341000   170.49736     -356.009       -358.19081      0             -358.19081      2.1818129    
    342000   175.18564     -355.6514      -357.89321      0             -357.89321      2.2418076    
    343000   171.37728     -354.49448     -356.68755      0             -356.68755      2.1930729    
    344000   172.69827     -354.417       -356.62698      0             -356.62698      2.2099773    
    345000   174.3905      -356.42096     -358.6526       0             -358.6526       2.2316324    
    346000   172.76048     -355.91931     -358.13009      0             -358.13009      2.2107735    
    347000   173.10454     -354.51362     -356.72879      0             -356.72879      2.2151762    
    348000   175.28885     -355.66632     -357.90945      0             -357.90945      2.2431284    
    349000   175.46335     -355.73959     -357.98495      0             -357.98495      2.2453614    
    350000   175.8343      -354.44675     -356.69686      0             -356.69686      2.2501084    
    351000   175.38719     -355.7295      -357.97389      0             -357.97389      2.2443868    
    352000   174.93473     -355.48928     -357.72787      0             -357.72787      2.2385968    
    353000   179.09749     -354.54472     -356.83659      0             -356.83659      2.2918665    
    354000   176.26709     -354.25331     -356.50895      0             -356.50895      2.2556467    
    355000   180.3188      -355.17117     -357.47867      0             -357.47867      2.3074954    
    356000   178.83029     -355.44708     -357.73553      0             -357.73553      2.2884472    
    357000   176.29554     -354.63188     -356.88789      0             -356.88789      2.2560107    
    358000   179.41093     -353.88492     -356.1808       0             -356.1808       2.2958776    
    359000   180.53315     -355.15118     -357.46142      0             -357.46142      2.3102383    
    360000   178.68014     -355.17938     -357.4659       0             -357.4659       2.2865258    
    361000   178.16021     -355.17964     -357.45951      0             -357.45951      2.2798724    
    362000   181.2385      -355.03197     -357.35124      0             -357.35124      2.3192645    
    363000   182.98944     -354.41523     -356.7569       0             -356.7569       2.3416709    
    364000   183.2395      -355.76423     -358.10911      0             -358.10911      2.3448708    
    365000   183.049       -354.13708     -356.47952      0             -356.47952      2.3424331    
    366000   181.80276     -354.37699     -356.70348      0             -356.70348      2.3264853    
    367000   182.90377     -355.89304     -358.23362      0             -358.23362      2.3405746    
    368000   181.40895     -355.44069     -357.76214      0             -357.76214      2.3214458    
    369000   185.04357     -354.38851     -356.75646      0             -356.75646      2.3679571    
    370000   185.74156     -355.20936     -357.58625      0             -357.58625      2.3768891    
    371000   187.05241     -355.17608     -357.56975      0             -357.56975      2.3936637    
    372000   185.13432     -355.03718     -357.4063       0             -357.4063       2.3691185    
    373000   185.98491     -354.87193     -357.25193      0             -357.25193      2.3800032    
    374000   187.01656     -353.66005     -356.05325      0             -356.05325      2.393205     
    375000   189.56528     -354.518       -356.94382      0             -356.94382      2.4258203    
    376000   186.70784     -355.97868     -358.36793      0             -358.36793      2.3892544    
    377000   185.44397     -354.25119     -356.62427      0             -356.62427      2.3730809    
    378000   189.68721     -354.87571     -357.30309      0             -357.30309      2.4273806    
    379000   191.10693     -354.03784     -356.48339      0             -356.48339      2.4455485    
    380000   191.16703     -355.1823      -357.62862      0             -357.62862      2.4463175    
    381000   190.5085      -354.86049     -357.29838      0             -357.29838      2.4378905    
    382000   192.70479     -355.25015     -357.71615      0             -357.71615      2.4659958    
    383000   191.05462     -354.03374     -356.47861      0             -356.47861      2.4448791    
    384000   195.80458     -354.77075     -357.27641      0             -357.27641      2.5056631    
    385000   192.99122     -354.25302     -356.72268      0             -356.72268      2.4696612    
    386000   192.0557      -355.81343     -358.27112      0             -358.27112      2.4576896    
    387000   194.18462     -353.5164      -356.00133      0             -356.00133      2.4849329    
    388000   194.16053     -354.26309     -356.74771      0             -356.74771      2.4846246    
    389000   194.67959     -354.92264     -357.41391      0             -357.41391      2.4912669    
    390000   195.88226     -354.56992     -357.07658      0             -357.07658      2.5066572    
    391000   193.84273     -355.43475     -357.91531      0             -357.91531      2.4805578    
    392000   198.09392     -354.57282     -357.10778      0             -357.10778      2.5349592    
    393000   195.86266     -354.32101     -356.82741      0             -356.82741      2.5064063    
    394000   196.13046     -355.24126     -357.7511       0             -357.7511       2.5098333    
    395000   197.54696     -353.32685     -355.85481      0             -355.85481      2.5279599    
    396000   197.17443     -355.45891     -357.9821       0             -357.9821       2.5231927    
    397000   198.11231     -354.08132     -356.61652      0             -356.61652      2.5351946    
    398000   200.21707     -355.06939     -357.63152      0             -357.63152      2.5621287    
    399000   197.55793     -354.2026      -356.7307       0             -356.7307       2.5281003    
    400000   198.73875     -354.45965     -357.00286      0             -357.00286      2.5432109    
    401000   204.49282     -354.71125     -357.3281       0             -357.3281       2.6168444    
    402000   199.83985     -354.89664     -357.45394      0             -357.45394      2.5573014    
    403000   202.92311     -353.56304     -356.1598       0             -356.1598       2.5967571    
    404000   204.40975     -354.37244     -356.98822      0             -356.98822      2.6157813    
    405000   201.32194     -354.29644     -356.87271      0             -356.87271      2.5762674    
    406000   203.25679     -353.64348     -356.24451      0             -356.24451      2.6010272    
    407000   201.53013     -354.8048      -357.38373      0             -357.38373      2.5789316    
    408000   201.59473     -354.34871     -356.92847      0             -356.92847      2.5797583    
    409000   203.70751     -353.71541     -356.32221      0             -356.32221      2.606795     
    410000   205.9537      -354.76434     -357.39988      0             -357.39988      2.6355389    
    411000   203.8956      -354.73651     -357.34571      0             -357.34571      2.6092019    
    412000   204.87429     -353.94484     -356.56657      0             -356.56657      2.6217259    
    413000   207.68061     -353.2783      -355.93594      0             -355.93594      2.6576377    
    414000   205.43802     -355.67692     -358.30586      0             -358.30586      2.6289399    
    415000   207.66945     -354.38955     -357.04704      0             -357.04704      2.6574949    
    416000   210.40221     -353.79968     -356.49215      0             -356.49215      2.6924653    
    417000   210.54165     -354.68032     -357.37457      0             -357.37457      2.6942498    
    418000   207.93258     -354.80802     -357.46888      0             -357.46888      2.6608622    
    419000   211.24341     -353.1912      -355.89443      0             -355.89443      2.70323      
    420000   210.58431     -353.61584     -356.31063      0             -356.31063      2.6947957    
    421000   211.8712      -354.51341     -357.22467      0             -357.22467      2.7112637    
    422000   208.44253     -353.29083     -355.95822      0             -355.95822      2.6673879    
    423000   213.45059     -354.12998     -356.86146      0             -356.86146      2.7314748    
    424000   209.66577     -354.56346     -357.2465       0             -357.2465       2.6830414    
    425000   208.60447     -353.76037     -356.42983      0             -356.42983      2.6694602    
    426000   215.84579     -353.68594     -356.44807      0             -356.44807      2.7621255    
    427000   214.14866     -355.30274     -358.04315      0             -358.04315      2.7404078    
    428000   217.27923     -354.72407     -357.50454      0             -357.50454      2.780469     
    429000   211.93985     -355.9215      -358.63364      0             -358.63364      2.7121422    
    430000   216.23418     -354.45857     -357.22566      0             -357.22566      2.7670957    
    431000   218.33314     -355.71777     -358.51173      0             -358.51173      2.7939556    
    432000   215.67626     -355.349       -358.10896      0             -358.10896      2.7599561    
    433000   216.52133     -353.50157     -356.27234      0             -356.27234      2.7707702    
    434000   215.38518     -354.70745     -357.46368      0             -357.46368      2.7562313    
    435000   220.46309     -355.79371     -358.61492      0             -358.61492      2.821212     
    436000   216.15124     -353.91846     -356.68449      0             -356.68449      2.7660343    
    437000   218.87093     -354.75248     -357.55331      0             -357.55331      2.8008376    
    438000   220.05458     -355.01878     -357.83477      0             -357.83477      2.8159844    
    439000   218.72019     -354.54886     -357.34777      0             -357.34777      2.7989086    
    440000   223.80135     -354.96628     -357.83021      0             -357.83021      2.8639309    
    441000   220.63539     -355.32743     -358.15085      0             -358.15085      2.8234168    
    442000   221.31345     -355.56027     -358.39236      0             -358.39236      2.8320939    
    443000   220.05015     -353.70558     -356.52151      0             -356.52151      2.8159277    
    444000   223.05665     -355.49678     -358.35119      0             -358.35119      2.8544011    
    445000   219.98725     -354.46818     -357.28331      0             -357.28331      2.8151227    
    446000   225.36799     -354.96074     -357.84472      0             -357.84472      2.8839788    
    447000   221.5282      -355.06088     -357.89573      0             -357.89573      2.834842     
    448000   224.11045     -355.44195     -358.30983      0             -358.30983      2.8678864    
    449000   224.75528     -354.31626     -357.1924       0             -357.1924       2.8761381    
    450000   226.32156     -354.98583     -357.88202      0             -357.88202      2.8961814    
    451000   223.19687     -355.7209      -358.57709      0             -358.57709      2.8561956    
    452000   227.76545     -353.45243     -356.36709      0             -356.36709      2.9146585    
    453000   223.74791     -355.58358     -358.44683      0             -358.44683      2.863247     
    454000   227.72058     -354.76424     -357.67833      0             -357.67833      2.9140844    
    455000   226.85637     -355.63453     -358.53755      0             -358.53755      2.9030252    
    456000   228.61531     -353.79361     -356.71914      0             -356.71914      2.925534     
    457000   229.53173     -356.40443     -359.34169      0             -359.34169      2.9372612    
    458000   228.53958     -354.2228      -357.14736      0             -357.14736      2.9245649    
    459000   229.8568      -353.40499     -356.34641      0             -356.34641      2.941421     
    460000   232.66555     -354.45834     -357.43571      0             -357.43571      2.9773639    
    461000   228.66143     -355.76584     -358.69196      0             -358.69196      2.9261242    
    462000   231.49119     -353.9857      -356.94804      0             -356.94804      2.9623359    
    463000   232.05132     -355.09139     -358.0609       0             -358.0609       2.9695037    
    464000   228.08468     -354.17563     -357.09437      0             -357.09437      2.9187436    
    465000   235.56903     -354.27009     -357.28461      0             -357.28461      3.014519     
    466000   232.83019     -354.72915     -357.70862      0             -357.70862      2.9794707    
    467000   233.93455     -354.36086     -357.35446      0             -357.35446      2.993603     
    468000   233.1034      -355.12146     -358.10443      0             -358.10443      2.982967     
    469000   233.65217     -354.51844     -357.50843      0             -357.50843      2.9899894    
    470000   233.11419     -355.40103     -358.38413      0             -358.38413      2.983105     
    471000   237.53145     -354.82986     -357.86949      0             -357.86949      3.0396316    
    472000   238.00279     -354.76231     -357.80797      0             -357.80797      3.0456633    
    473000   236.1259      -354.3003      -357.32195      0             -357.32195      3.0216451    
    474000   235.60189     -354.99109     -358.00603      0             -358.00603      3.0149396    
    475000   238.36734     -354.9917      -358.04203      0             -358.04203      3.0503283    
    476000   236.47981     -354.55631     -357.58249      0             -357.58249      3.026174     
    477000   237.48606     -354.97661     -358.01566      0             -358.01566      3.0390507    
    478000   236.1988      -354.96868     -357.99126      0             -357.99126      3.022578     
    479000   241.80478     -354.44023     -357.53455      0             -357.53455      3.0943164    
    480000   237.95458     -355.41319     -358.45824      0             -358.45824      3.0450464    
    481000   240.43861     -354.9169      -357.99374      0             -357.99374      3.0768338    
    482000   238.61424     -352.88205     -355.93553      0             -355.93553      3.0534878    
    483000   243.65731     -355.15862     -358.27664      0             -358.27664      3.1180228    
    484000   240.1779      -355.11812     -358.19161      0             -358.19161      3.0734976    
    485000   243.07024     -353.82049     -356.931        0             -356.931        3.1105102    
    486000   242.7779      -354.62187     -357.72864      0             -357.72864      3.1067691    
    487000   245.82167     -355.2979      -358.44362      0             -358.44362      3.1457195    
    488000   245.30309     -354.36013     -357.49921      0             -357.49921      3.1390834    
    489000   245.64019     -354.66866     -357.81206      0             -357.81206      3.1433971    
    490000   241.20301     -353.94516     -357.03178      0             -357.03178      3.0866156    
    491000   246.08143     -354.71977     -357.86881      0             -357.86881      3.1490436    
    492000   244.33308     -354.798       -357.92467      0             -357.92467      3.1266704    
    493000   244.43648     -354.83426     -357.96225      0             -357.96225      3.1279935    
    494000   248.3941      -353.76366     -356.9423       0             -356.9423       3.1786382    
    495000   247.05437     -355.40129     -358.56279      0             -358.56279      3.1614941    
    496000   244.99855     -353.76196     -356.89714      0             -356.89714      3.1351862    
    497000   248.47035     -354.67417     -357.85379      0             -357.85379      3.179614     
    498000   248.78223     -355.17575     -358.35935      0             -358.35935      3.1836051    
    499000   250.35304     -353.88906     -357.09277      0             -357.09277      3.2037064    
    500000   249.32795     -354.32792     -357.51851      0             -357.51851      3.1905886    
    501000   251.89812     -354.30015     -357.52362      0             -357.52362      3.2234784    
    502000   252.91912     -355.14456     -358.3811       0             -358.3811       3.2365438    
    503000   252.94544     -353.82403     -357.06092      0             -357.06092      3.2368807    
    504000   253.33094     -354.73282     -357.97463      0             -357.97463      3.2418138    
    505000   253.50112     -354.26697     -357.51096      0             -357.51096      3.2439915    
    506000   253.9948      -354.90883     -358.15914      0             -358.15914      3.2503091    
    507000   253.554       -354.10716     -357.35183      0             -357.35183      3.2446683    
    508000   256.76321     -353.01493     -356.30067      0             -356.30067      3.2857357    
    509000   249.63377     -354.64904     -357.84354      0             -357.84354      3.194502     
    510000   253.54348     -354.84384     -358.08837      0             -358.08837      3.2445336    
    511000   256.05013     -352.61742     -355.89403      0             -355.89403      3.2766106    
    512000   256.14351     -354.92609     -358.2039       0             -358.2039       3.2778056    
    513000   254.26767     -353.58562     -356.83942      0             -356.83942      3.2538009    
    514000   257.62291     -353.92075     -357.21748      0             -357.21748      3.296737     
    515000   261.09943     -354.35743     -357.69865      0             -357.69865      3.3412252    
    516000   257.41364     -353.87093     -357.16499      0             -357.16499      3.2940591    
    517000   259.18293     -354.23479     -357.55149      0             -357.55149      3.3167003    
    518000   263.4284      -355.04437     -358.41539      0             -358.41539      3.3710285    
    519000   262.00129     -353.99282     -357.34559      0             -357.34559      3.3527662    
    520000   259.9262      -354.18411     -357.51033      0             -357.51033      3.3262117    
    521000   258.35128     -353.76369     -357.06975      0             -357.06975      3.3060578    
    522000   259.59        -353.74115     -357.06306      0             -357.06306      3.3219095    
    523000   260.35645     -355.15329     -358.485        0             -358.485        3.3317176    
    524000   260.19988     -354.45826     -357.78798      0             -357.78798      3.3297139    
    525000   263.92262     -353.64367     -357.02102      0             -357.02102      3.3773529    
    526000   261.10371     -354.306       -357.64728      0             -357.64728      3.3412801    
    527000   265.75311     -354.53483     -357.93561      0             -357.93561      3.4007773    
    528000   261.86611     -353.52435     -356.87539      0             -356.87539      3.3510363    
    529000   267.15239     -353.8446      -357.26329      0             -357.26329      3.4186835    
    530000   262.35285     -355.32173     -358.679        0             -358.679        3.3572649    
    531000   268.98681     -353.6752      -357.11736      0             -357.11736      3.4421581    
    532000   268.17599     -354.67544     -358.10723      0             -358.10723      3.4317822    
    533000   268.81246     -353.87118     -357.3111       0             -357.3111       3.4399271    
    534000   267.62714     -352.38956     -355.81431      0             -355.81431      3.4247588    
    535000   267.99275     -354.83863     -358.26807      0             -358.26807      3.4294374    
    536000   265.4254      -354.18312     -357.5797       0             -357.5797       3.3965837    
    537000   271.54967     -353.87674     -357.35169      0             -357.35169      3.4749544    
    538000   267.09445     -353.31032     -356.72826      0             -356.72826      3.4179421    
    539000   273.89762     -353.51339     -357.01839      0             -357.01839      3.5050006    
    540000   269.79037     -354.21619     -357.66863      0             -357.66863      3.4524411    
    541000   270.43789     -354.09544     -357.55617      0             -357.55617      3.4607272    
    542000   269.98277     -354.34726     -357.80216      0             -357.80216      3.4549032    
    543000   268.63278     -353.93756     -357.37518      0             -357.37518      3.4376277    
    544000   274.58618     -352.76128     -356.27509      0             -356.27509      3.5138119    
    545000   271.34159     -355.0282      -358.50049      0             -358.50049      3.4722917    
    546000   271.76451     -353.64232     -357.12002      0             -357.12002      3.4777037    
    547000   272.54622     -352.96148     -356.44919      0             -356.44919      3.4877071    
    548000   273.34291     -354.94891     -358.44681      0             -358.44681      3.497902     
    549000   273.47196     -353.28201     -356.78156      0             -356.78156      3.4995535    
    550000   275.81119     -353.73646     -357.26594      0             -357.26594      3.5294881    
    551000   273.34981     -353.90096     -357.39895      0             -357.39895      3.4979903    
    552000   277.63238     -354.21994     -357.77273      0             -357.77273      3.5527934    
    553000   276.18331     -353.47298     -357.00723      0             -357.00723      3.53425      
    554000   276.72963     -354.33675     -357.87799      0             -357.87799      3.5412411    
    555000   276.45862     -352.93433     -356.4721       0             -356.4721       3.537773     
    556000   277.35353     -354.62513     -358.17435      0             -358.17435      3.5492251    
    557000   281.30491     -353.7367      -357.33649      0             -357.33649      3.5997899    
    558000   277.69061     -353.41473     -356.96827      0             -356.96827      3.5535385    
    559000   281.10509     -352.59167     -356.1889       0             -356.1889       3.5972328    
    560000   281.27738     -352.48717     -356.08661      0             -356.08661      3.5994376    
    561000   277.80183     -353.99809     -357.55305      0             -357.55305      3.5549618    
    562000   279.27085     -353.49422     -357.06798      0             -357.06798      3.5737604    
    563000   279.26372     -353.09886     -356.67253      0             -356.67253      3.5736692    
    564000   283.0929      -353.21382     -356.83649      0             -356.83649      3.6226703    
    565000   283.97099     -354.18035     -357.81426      0             -357.81426      3.633907     
    566000   281.43324     -352.54685     -356.14828      0             -356.14828      3.601432     
    567000   284.71212     -353.68247     -357.32586      0             -357.32586      3.643391     
    568000   287.80263     -353.50175     -357.18469      0             -357.18469      3.6829395    
    569000   281.90794     -353.19297     -356.80048      0             -356.80048      3.6075066    
    570000   285.2646      -352.78304     -356.4335       0             -356.4335       3.650461     
    571000   281.7241      -353.15832     -356.76347      0             -356.76347      3.6051541    
    572000   286.22963     -354.18886     -357.85167      0             -357.85167      3.6628102    
    573000   286.98982     -353.24748     -356.92001      0             -356.92001      3.6725383    
    574000   284.32654     -352.48429     -356.12274      0             -356.12274      3.6384569    
    575000   289.02367     -353.12646     -356.82502      0             -356.82502      3.6985648    
    576000   287.15195     -354.00096     -357.67557      0             -357.67557      3.6746129    
    577000   287.18265     -353.79697     -357.47198      0             -357.47198      3.6750058    
    578000   289.54265     -354.27063     -357.97583      0             -357.97583      3.7052062    
    579000   290.05964     -352.90087     -356.61269      0             -356.61269      3.711822     
    580000   290.82108     -353.65459     -357.37616      0             -357.37616      3.7215659    
    581000   292.84056     -354.35484     -358.10225      0             -358.10225      3.7474087    
    582000   290.24338     -353.14044     -356.85461      0             -356.85461      3.7141732    
    583000   293.9766      -353.57435     -357.3363       0             -357.3363       3.7619463    
    584000   293.99454     -353.99136     -357.75354      0             -357.75354      3.7621759    
    585000   292.31527     -353.82001     -357.56069      0             -357.56069      3.7406867    
    586000   290.98957     -353.12529     -356.84901      0             -356.84901      3.7237221    
    587000   293.72798     -353.48333     -357.2421       0             -357.2421       3.7587648    
    588000   291.47663     -354.04732     -357.77728      0             -357.77728      3.7299549    
    589000   298.3669      -352.97175     -356.78987      0             -356.78987      3.8181279    
    590000   294.99409     -353.41178     -357.18675      0             -357.18675      3.7749669    
    591000   294.77953     -353.3907      -357.16292      0             -357.16292      3.7722212    
    592000   297.26201     -352.96268     -356.76667      0             -356.76667      3.803989     
    593000   298.0341      -353.6555      -357.46937      0             -357.46937      3.8138691    
    594000   296.20782     -352.40757     -356.19807      0             -356.19807      3.7904987    
    595000   296.50797     -354.49861     -358.29295      0             -358.29295      3.7943397    
    596000   297.20476     -351.89052     -355.69377      0             -355.69377      3.8032563    
    597000   300.74368     -354.75342     -358.60197      0             -358.60197      3.848543     
    598000   300.32255     -352.10825     -355.9514       0             -355.9514       3.843154     
    599000   298.9745      -353.40626     -357.23216      0             -357.23216      3.8259032    
    600000   295.96896     -353.71176     -357.4992       0             -357.4992       3.7874421    
    601000   299.50328     -352.61109     -356.44376      0             -356.44376      3.8326698    
    602000   302.47847     -353.34169     -357.21243      0             -357.21243      3.8707427    
    603000   296.75049     -351.55814     -355.35558      0             -355.35558      3.7974432    
    604000   300.98741     -352.93188     -356.78354      0             -356.78354      3.851662     
    605000   303.37164     -354.73326     -358.61544      0             -358.61544      3.8821724    
    606000   303.29554     -352.60328     -356.48448      0             -356.48448      3.8811985    
    607000   302.28528     -352.95911     -356.82738      0             -356.82738      3.8682705    
    608000   304.23211     -353.94277     -357.83595      0             -357.83595      3.8931836    
    609000   304.00996     -354.06959     -357.95993      0             -357.95993      3.8903408    
    610000   307.13658     -351.98352     -355.91387      0             -355.91387      3.9303513    
    611000   307.41615     -352.86705     -356.80098      0             -356.80098      3.933929     
    612000   309.00873     -352.589       -356.54331      0             -356.54331      3.9543088    
    613000   304.66441     -353.3967      -357.29541      0             -357.29541      3.8987156    
    614000   308.61384     -351.81356     -355.76282      0             -355.76282      3.9492554    
    615000   305.47798     -353.76295     -357.67207      0             -357.67207      3.9091267    
    616000   309.46567     -353.40462     -357.36477      0             -357.36477      3.9601562    
    617000   308.90318     -352.20703     -356.15999      0             -356.15999      3.9529582    
    618000   307.22219     -352.49007     -356.42152      0             -356.42152      3.9314469    
    619000   310.29607     -354.13465     -358.10543      0             -358.10543      3.9707826    
    620000   306.47345     -352.61374     -356.5356       0             -356.5356       3.9218654    
    621000   310.87631     -352.12482     -356.10303      0             -356.10303      3.9782078    
    622000   312.3643      -353.45393     -357.45118      0             -357.45118      3.9972492    
    623000   313.57795     -353.77443     -357.78721      0             -357.78721      4.0127801    
    624000   309.45521     -352.93702     -356.89705      0             -356.89705      3.9600223    
    625000   313.04773     -353.12027     -357.12627      0             -357.12627      4.0059949    
    626000   312.75018     -353.217       -357.21919      0             -357.21919      4.0021872    
    627000   309.29277     -352.60874     -356.56668      0             -356.56668      3.9579436    
    628000   312.11274     -352.33977     -356.3338       0             -356.3338       3.9940301    
    629000   314.11155     -353.79773     -357.81733      0             -357.81733      4.0196083    
    630000   316.24832     -352.57373     -356.62069      0             -356.62069      4.046952     
    631000   316.43749     -353.2391      -357.28847      0             -357.28847      4.0493729    
    632000   313.56073     -352.53978     -356.55234      0             -356.55234      4.0125597    
    633000   316.39997     -352.45622     -356.50511      0             -356.50511      4.0488927    
    634000   317.49206     -353.36571     -357.42858      0             -357.42858      4.0628679    
    635000   321.2442      -352.229       -356.33988      0             -356.33988      4.1108831    
    636000   319.42271     -352.20758     -356.29515      0             -356.29515      4.087574     
    637000   322.06679     -353.71248     -357.83389      0             -357.83389      4.1214096    
    638000   316.16556     -352.37101     -356.4169       0             -356.4169       4.045893     
    639000   318.25158     -353.11327     -357.18586      0             -357.18586      4.0725873    
    640000   319.44045     -353.1557      -357.2435       0             -357.2435       4.0878009    
    641000   323.31364     -353.33431     -357.47168      0             -357.47168      4.1373652    
    642000   322.09041     -353.09035     -357.21206      0             -357.21206      4.1217118    
    643000   325.30418     -358.2054      -362.36824      0             -362.36824      4.1628377    
    644000   317.4469      -357.76729     -361.82958      0             -361.82958      4.06229      
    645000   324.42546     -354.67073     -358.82233      0             -358.82233      4.1515929    
    646000   324.5436      -356.62135     -360.77445      0             -360.77445      4.1531048    
    647000   324.1299      -355.53654     -359.68435      0             -359.68435      4.1478107    
    648000   325.42974     -356.38216     -360.54661      0             -360.54661      4.1644444    
    649000   323.57724     -355.18226     -359.32299      0             -359.32299      4.1407385    
    650000   326.53257     -357.49648     -361.67503      0             -361.67503      4.1785571    
    651000   323.08513     -361.72184     -365.85628      0             -365.85628      4.1344411    
    652000   324.0451      -358.52406     -362.67079      0             -362.67079      4.1467256    
    653000   328.53025     -359.01506     -363.21918      0             -363.21918      4.2041209    
    654000   324.66387     -360.46073     -364.61537      0             -364.61537      4.1546438    
    655000   324.87722     -357.25766     -361.41503      0             -361.41503      4.1573739    
    656000   328.78021     -359.46007     -363.66739      0             -363.66739      4.2073196    
    657000   328.09584     -360.18479     -364.38336      0             -364.38336      4.1985619    
    658000   327.21432     -358.799       -362.98628      0             -362.98628      4.1872813    
    659000   326.77833     -358.30892     -362.49063      0             -362.49063      4.1817021    
    660000   328.85991     -358.32542     -362.53376      0             -362.53376      4.2083394    
    661000   328.41492     -359.33433     -363.53698      0             -363.53698      4.202645     
    662000   332.49398     -358.59365     -362.8485       0             -362.8485       4.2548438    
    663000   332.6652      -358.99371     -363.25074      0             -363.25074      4.2570348    
    664000   330.65164     -359.70975     -363.94102      0             -363.94102      4.2312678    
    665000   337.42763     -360.8884      -365.20638      0             -365.20638      4.3179785    
    666000   334.20907     -360.24439     -364.52118      0             -364.52118      4.2767914    
    667000   333.61247     -358.1095      -362.37866      0             -362.37866      4.2691568    
    668000   334.24263     -358.7942      -363.07142      0             -363.07142      4.2772208    
    669000   335.33405     -359.721       -364.01218      0             -364.01218      4.2911875    
    670000   332.58184     -358.98294     -363.2389       0             -363.2389       4.2559681    
    671000   335.44237     -356.83576     -361.12833      0             -361.12833      4.2925736    
    672000   339.43442     -359.34558     -363.68924      0             -363.68924      4.3436589    
    673000   335.61215     -359.02598     -363.32073      0             -363.32073      4.2947462    
    674000   336.19347     -359.05487     -363.35706      0             -363.35706      4.3021852    
    675000   339.8261      -357.41175     -361.76042      0             -361.76042      4.3486712    
    676000   336.69971     -359.91816     -364.22682      0             -364.22682      4.3086635    
    677000   337.14012     -358.51688     -362.83118      0             -362.83118      4.3142993    
    678000   340.26391     -360.11107     -364.46534      0             -364.46534      4.3542736    
    679000   340.86069     -359.04281     -363.40472      0             -363.40472      4.3619105    
    680000   342.09644     -358.33581     -362.71353      0             -362.71353      4.3777241    
    681000   344.40191     -357.56595     -361.97318      0             -361.97318      4.4072267    
    682000   339.42349     -359.09196     -363.43548      0             -363.43548      4.343519     
    683000   339.30623     -359.32544     -363.66745      0             -363.66745      4.3420184    
    684000   341.4103      -360.06274     -364.43168      0             -364.43168      4.3689437    
    685000   342.17802     -358.65896     -363.03772      0             -363.03772      4.3787681    
    686000   344.59182     -358.27214     -362.68179      0             -362.68179      4.4096569    
    687000   340.38102     -357.70362     -362.0594       0             -362.0594       4.3557723    
    688000   343.01194     -358.6317      -363.02114      0             -363.02114      4.3894395    
    689000   344.26857     -360.22473     -364.63025      0             -364.63025      4.4055203    
    690000   341.59642     -357.80141     -362.17273      0             -362.17273      4.3713255    
    691000   344.71138     -356.69163     -361.10282      0             -361.10282      4.4111869    
    692000   349.72353     -359.83781     -364.31313      0             -364.31313      4.4753261    
    693000   345.76231     -360.19314     -364.61777      0             -364.61777      4.4246353    
    694000   351.78344     -357.84168     -362.34336      0             -362.34336      4.5016862    
    695000   342.6889      -358.92361     -363.30891      0             -363.30891      4.3853056    
    696000   354.19416     -357.34089     -361.87343      0             -361.87343      4.5325356    
    697000   349.48694     -360.13064     -364.60294      0             -364.60294      4.4722985    
    698000   352.91938     -358.89126     -363.40749      0             -363.40749      4.5162226    
    699000   346.81144     -358.48989     -362.92795      0             -362.92795      4.4380608    
    700000   353.27837     -359.30775     -363.82857      0             -363.82857      4.5208165    
    701000   349.36848     -360.04166     -364.51244      0             -364.51244      4.4707826    
    702000   352.1015      -357.90351     -362.40927      0             -362.40927      4.5057565    
    703000   355.09866     -358.6067      -363.15081      0             -363.15081      4.5441103    
    704000   353.06175     -358.26234     -362.78038      0             -362.78038      4.5180445    
    705000   351.55832     -357.2646      -361.7634       0             -361.7634       4.4988055    
    706000   353.0411      -359.97951     -364.49729      0             -364.49729      4.5177803    
    707000   350.66572     -358.80035     -363.28774      0             -363.28774      4.4873831    
    708000   358.54309     -358.55589     -363.14407      0             -363.14407      4.5881878    
    709000   352.65341     -356.96647     -361.47929      0             -361.47929      4.512819     
    710000   355.63468     -359.11935     -363.67032      0             -363.67032      4.5509697    
    711000   355.51987     -358.56582     -363.11532      0             -363.11532      4.5495004    
    712000   357.05234     -358.36124     -362.93035      0             -362.93035      4.5691111    
    713000   356.99535     -358.29639     -362.86477      0             -362.86477      4.5683818    
    714000   356.05034     -358.44565     -363.00194      0             -363.00194      4.5562887    
    715000   357.789       -358.00546     -362.58399      0             -362.58399      4.5785379    
    716000   355.13128     -358.57036     -363.11488      0             -363.11488      4.5445278    
    717000   356.48394     -359.28528     -363.84712      0             -363.84712      4.5618374    
    718000   363.12587     -358.88315     -363.52998      0             -363.52998      4.6468325    
    719000   357.47993     -357.37436     -361.94894      0             -361.94894      4.5745829    
    720000   358.25092     -358.5138      -363.09825      0             -363.09825      4.584449     
    721000   360.14283     -358.05234     -362.661        0             -362.661        4.6086593    
    722000   361.14579     -358.34047     -362.96196      0             -362.96196      4.6214939    
    723000   363.24244     -358.41776     -363.06609      0             -363.06609      4.6483243    
    724000   363.69377     -359.0619      -363.716        0             -363.716        4.6540998    
    725000   364.03294     -358.57309     -363.23153      0             -363.23153      4.6584401    
    726000   364.86877     -357.46986     -362.13899      0             -362.13899      4.669136     
    727000   361.74164     -357.97661     -362.60573      0             -362.60573      4.6291189    
    728000   359.43257     -358.24069     -362.84026      0             -362.84026      4.5995703    
    729000   367.24083     -357.58909     -362.28859      0             -362.28859      4.6994907    
    730000   365.15599     -357.78576     -362.45857      0             -362.45857      4.6728115    
    731000   365.5208      -357.22845     -361.90593      0             -361.90593      4.6774799    
    732000   367.46354     -357.94227     -362.64461      0             -362.64461      4.7023407    
    733000   367.85561     -359.0169      -363.72426      0             -363.72426      4.7073579    
    734000   369.56531     -357.66297     -362.3922       0             -362.3922       4.7292365    
    735000   365.85124     -357.20684     -361.88855      0             -361.88855      4.6817085    
    736000   367.50773     -356.49549     -361.1984       0             -361.1984       4.7029061    
    737000   368.36967     -357.83012     -362.54406      0             -362.54406      4.7139362    
    738000   370.15934     -358.72344     -363.46028      0             -363.46028      4.7368382    
    739000   370.86245     -358.63948     -363.38532      0             -363.38532      4.7458357    
    740000   370.58647     -359.08719     -363.8295       0             -363.8295       4.742304     
    741000   368.40925     -357.93146     -362.64591      0             -362.64591      4.7144427    
    742000   368.12239     -358.03786     -362.74863      0             -362.74863      4.7107718    
    743000   373.86822     -359.91115     -364.69545      0             -364.69545      4.7842998    
    744000   374.45398     -357.37481     -362.1666       0             -362.1666       4.7917955    
    745000   378.34471     -357.71144     -362.55303      0             -362.55303      4.8415843    
    746000   375.17138     -358.62613     -363.42711      0             -363.42711      4.800976     
    747000   372.10336     -359.01269     -363.7744       0             -363.7744       4.7617153    
    748000   373.96867     -356.32618     -361.11177      0             -361.11177      4.7855852    
    749000   373.66469     -358.45132     -363.23302      0             -363.23302      4.7816953    
    750000   373.76434     -357.96047     -362.74344      0             -362.74344      4.7829705    
    751000   374.56764     -357.49735     -362.2906       0             -362.2906       4.7932501    
    752000   376.28694     -357.63517     -362.45042      0             -362.45042      4.8152515    
    753000   373.69012     -357.91044     -362.69246      0             -362.69246      4.7820207    
    754000   383.74946     -358.39739     -363.30813      0             -363.30813      4.9107476    
    755000   377.47969     -357.44312     -362.27364      0             -362.27364      4.8305148    
    756000   374.03009     -357.29144     -362.07781      0             -362.07781      4.7863712    
    757000   379.2441      -357.68641     -362.5395       0             -362.5395       4.8530936    
    758000   382.23768     -358.96984     -363.86124      0             -363.86124      4.8914016    
[...]
   9643000   4817.0351     -608.12374     -669.76615      0             -669.76615      61.642414    
   9644000   4815.4548     -605.5147      -667.1369       0             -667.1369       61.622192    
   9645000   4833.13       -614.27608     -676.12445      0             -676.12445      61.848377    
   9646000   4838.5683     -610.01455     -671.93252      0             -671.93252      61.91797     
   9647000   4819.9348     -605.69426     -667.37378      0             -667.37378      61.679522    
   9648000   4826.6956     -610.72735     -672.49339      0             -672.49339      61.766038    
   9649000   4824.005      -601.50317     -663.23478      0             -663.23478      61.731606    
   9650000   4810.9314     -595.05918     -656.62348      0             -656.62348      61.564307    
   9651000   4832.5969     -595.75117     -657.59273      0             -657.59273      61.841556    
   9652000   4820.4149     -596.59842     -658.28408      0             -658.28408      61.685666    
   9653000   4839.0624     -596.21018     -658.13447      0             -658.13447      61.924292    
   9654000   4847.4424     -608.33396     -670.36549      0             -670.36549      62.03153     
   9655000   4836.1169     -608.82538     -670.71198      0             -670.71198      61.8866      
   9656000   4825.636      -611.31127     -673.06375      0             -673.06375      61.752479    
   9657000   4841.0894     -605.89657     -667.8468       0             -667.8468       61.950231    
   9658000   4829.2218     -600.39623     -662.19459      0             -662.19459      61.798365    
   9659000   4809.1264     -595.62949     -657.1707       0             -657.1707       61.54121     
   9660000   4835.1105     -604.65036     -666.52408      0             -666.52408      61.873722    
   9661000   4822.9162     -605.45985     -667.17752      0             -667.17752      61.717674    
   9662000   4835.9278     -612.85115     -674.73533      0             -674.73533      61.88418     
   9663000   4823.5849     -602.75696     -664.48319      0             -664.48319      61.726232    
   9664000   4837.1831     -608.97547     -670.87571      0             -670.87571      61.900244    
   9665000   4835.9197     -607.63766     -669.52173      0             -669.52173      61.884077    
   9666000   4821.0103     -610.31161     -672.00489      0             -672.00489      61.693285    
   9667000   4825.2533     -607.49256     -669.24014      0             -669.24014      61.747581    
   9668000   4815.2399     -605.77435     -667.39379      0             -667.39379      61.619442    
   9669000   4830.8593     -604.83753     -666.65685      0             -666.65685      61.81932     
   9670000   4806.2088     -597.38716     -658.89103      0             -658.89103      61.503873    
   9671000   4833.1436     -605.70057     -667.54912      0             -667.54912      61.848552    
   9672000   4856.9773     -600.09221     -662.24576      0             -662.24576      62.153545    
   9673000   4836.3479     -616.35391     -678.24347      0             -678.24347      61.889556    
   9674000   4838.893      -612.79476     -674.71688      0             -674.71688      61.922125    
   9675000   4841.6087     -613.98965     -675.94653      0             -675.94653      61.956877    
   9676000   4853.4268     -623.02032     -685.12843      0             -685.12843      62.108111    
   9677000   4839.4787     -616.89651     -678.82613      0             -678.82613      61.92962     
   9678000   4837.9637     -613.08387     -674.99411      0             -674.99411      61.910233    
   9679000   4834.9777     -599.29558     -661.16761      0             -661.16761      61.872022    
   9680000   4827.2777     -598.78082     -660.5543       0             -660.5543       61.773487    
   9681000   4833.0463     -596.08575     -657.93306      0             -657.93306      61.847307    
   9682000   4837.6374     -603.05074     -664.9568       0             -664.9568       61.906058    
   9683000   4851.3343     -602.00569     -664.08702      0             -664.08702      62.081334    
   9684000   4852.1123     -613.44286     -675.53415      0             -675.53415      62.09129     
   9685000   4844.6726     -608.53013     -670.52621      0             -670.52621      61.996085    
   9686000   4855.3059     -614.346       -676.47816      0             -676.47816      62.132156    
   9687000   4832.0871     -616.90497     -678.74         0             -678.74         61.835032    
   9688000   4860.5383     -605.31722     -667.51633      0             -667.51633      62.199115    
   9689000   4836.0931     -616.79693     -678.68323      0             -678.68323      61.886296    
   9690000   4840.0628     -601.02999     -662.96708      0             -662.96708      61.937094    
   9691000   4829.6802     -611.53098     -673.33521      0             -673.33521      61.804231    
   9692000   4841.7978     -611.75268     -673.71197      0             -673.71197      61.959297    
   9693000   4847.2232     -606.80737     -668.8361       0             -668.8361       62.028724    
   9694000   4839.9376     -601.55706     -663.49255      0             -663.49255      61.935493    
   9695000   4854.5773     -608.63132     -670.75415      0             -670.75415      62.122834    
   9696000   4849.3418     -613.32213     -675.37797      0             -675.37797      62.055836    
   9697000   4862.5875     -610.49776     -672.7231       0             -672.7231       62.225338    
   9698000   4869.4131     -614.3188      -676.63149      0             -676.63149      62.312684    
   9699000   4829.5212     -603.08806     -664.89026      0             -664.89026      61.802196    
   9700000   4859.6584     -603.4621      -665.64996      0             -665.64996      62.187855    
   9701000   4847.6098     -600.05136     -662.08503      0             -662.08503      62.033671    
   9702000   4844.3862     -601.85296     -663.84538      0             -663.84538      61.992421    
   9703000   4825.8368     -597.82784     -659.58289      0             -659.58289      61.755048    
   9704000   4865.9923     -599.88867     -662.15758      0             -662.15758      62.268908    
   9705000   4870.0056     -603.33438     -665.65465      0             -665.65465      62.320266    
   9706000   4850.5816     -605.29439     -667.36609      0             -667.36609      62.071701    
   9707000   4838.1942     -602.34495     -664.25813      0             -664.25813      61.913183    
   9708000   4855.4356     -612.01368     -674.1475       0             -674.1475       62.133817    
   9709000   4852.7458     -614.70217     -676.80157      0             -676.80157      62.099396    
   9710000   4837.4735     -610.05817     -671.96213      0             -671.96213      61.90396     
   9711000   4850.971      -608.07477     -670.15146      0             -670.15146      62.076684    
   9712000   4837.3646     -591.34474     -653.24731      0             -653.24731      61.902566    
   9713000   4882.9014     -607.61158     -670.09687      0             -670.09687      62.48529     
   9714000   4855.5527     -600.3585      -662.49381      0             -662.49381      62.135315    
   9715000   4860.5937     -612.76332     -674.96314      0             -674.96314      62.199824    
   9716000   4877.3291     -609.31851     -671.73249      0             -671.73249      62.413983    
   9717000   4852.6172     -613.04585     -675.1436       0             -675.1436       62.09775     
   9718000   4837.3042     -605.14509     -667.04688      0             -667.04688      61.901794    
   9719000   4870.2617     -603.74386     -666.0674       0             -666.0674       62.323543    
   9720000   4843.1188     -591.62051     -653.59671      0             -653.59671      61.976201    
   9721000   4868.0557     -587.87056     -650.16588      0             -650.16588      62.295313    
   9722000   4886.7983     -603.08494     -665.6201       0             -665.6201       62.535158    
   9723000   4851.5214     -600.57281     -662.65653      0             -662.65653      62.083728    
   9724000   4871.9423     -607.12916     -669.47421      0             -669.47421      62.345049    
   9725000   4859.2914     -613.32026     -675.50342      0             -675.50342      62.183159    
   9726000   4865.656      -613.50003     -675.76464      0             -675.76464      62.264604    
   9727000   4852.6541     -606.9041      -669.00232      0             -669.00232      62.098222    
   9728000   4873.4913     -604.88608     -667.25095      0             -667.25095      62.364871    
   9729000   4832.5013     -607.64709     -669.48742      0             -669.48742      61.840331    
   9730000   4870.3587     -615.07329     -677.39807      0             -677.39807      62.324784    
   9731000   4866.1969     -613.98041     -676.25194      0             -676.25194      62.271526    
   9732000   4853.9836     -609.38333     -671.49856      0             -671.49856      62.115236    
   9733000   4872.0686     -612.55184     -674.8985       0             -674.8985       62.346665    
   9734000   4859.1503     -608.78279     -670.96414      0             -670.96414      62.181353    
   9735000   4877.4673     -604.25397     -666.66972      0             -666.66972      62.415751    
   9736000   4860.6177     -604.45526     -666.65539      0             -666.65539      62.200131    
   9737000   4870.1194     -599.23381     -661.55553      0             -661.55553      62.321721    
   9738000   4886.247      -601.13605     -663.66415      0             -663.66415      62.528103    
   9739000   4889.3542     -599.00933     -661.57719      0             -661.57719      62.567864    
   9740000   4882.8565     -600.96356     -663.44827      0             -663.44827      62.484715    
   9741000   4861.6972     -606.15092     -668.36486      0             -668.36486      62.213944    
   9742000   4886.5817     -607.78688     -670.31927      0             -670.31927      62.532386    
   9743000   4871.2406     -607.92746     -670.26353      0             -670.26353      62.33607     
   9744000   4867.453      -599.67978     -661.96738      0             -661.96738      62.287601    
   9745000   4849.331      -591.15294     -653.20864      0             -653.20864      62.055697    
   9746000   4878.7144     -587.57001     -650.00172      0             -650.00172      62.431709    
   9747000   4858.1789     -599.592       -661.76093      0             -661.76093      62.168922    
   9748000   4870.2217     -604.42535     -666.74838      0             -666.74838      62.323031    
   9749000   4853.9387     -604.23438     -666.34904      0             -666.34904      62.114662    
   9750000   4880.3862     -610.8362      -673.2893       0             -673.2893       62.453104    
   9751000   4864.5987     -602.97023     -665.22131      0             -665.22131      62.251075    
   9752000   4873.7586     -603.3587      -665.72699      0             -665.72699      62.368291    
   9753000   4890.8165     -604.81267     -667.39925      0             -667.39925      62.586577    
   9754000   4881.6206     -592.78486     -655.25376      0             -655.25376      62.4689      
   9755000   4858.4561     -597.82804     -660.00051      0             -660.00051      62.17247     
   9756000   4877.8444     -591.12695     -653.54753      0             -653.54753      62.420577    
   9757000   4876.7598     -594.51378     -656.92048      0             -656.92048      62.406697    
   9758000   4863.4054     -599.14246     -661.37827      0             -661.37827      62.235805    
   9759000   4867.4641     -603.10959     -665.39733      0             -665.39733      62.287743    
   9760000   4880.7602     -599.72365     -662.18153      0             -662.18153      62.45789     
   9761000   4884.7711     -596.47427     -658.98348      0             -658.98348      62.509216    
   9762000   4876.6428     -600.8551      -663.2603       0             -663.2603       62.4052      
   9763000   4872.0886     -604.99904     -667.34597      0             -667.34597      62.346921    
   9764000   4874.367      -598.66908     -661.04516      0             -661.04516      62.376077    
   9765000   4885.368      -595.29067     -657.80752      0             -657.80752      62.516854    
   9766000   4886.0226     -605.43385     -667.95908      0             -667.95908      62.525231    
   9767000   4880.8694     -604.15991     -666.6192       0             -666.6192       62.459287    
   9768000   4899.4533     -602.74693     -665.44403      0             -665.44403      62.6971      
   9769000   4871.4343     -606.71807     -669.05662      0             -669.05662      62.338548    
   9770000   4844.9701     -601.54765     -663.54755      0             -663.54755      61.999892    
   9771000   4872.0626     -591.64035     -653.98694      0             -653.98694      62.346588    
   9772000   4897.3905     -594.68201     -657.35271      0             -657.35271      62.670703    
   9773000   4904.193      -595.336       -658.09376      0             -658.09376      62.757753    
   9774000   4894.3776     -596.01524     -658.64738      0             -658.64738      62.632148    
   9775000   4914.6883     -601.29225     -664.18431      0             -664.18431      62.892059    
   9776000   4872.7106     -590.93458     -653.28946      0             -653.28946      62.354881    
   9777000   4882.2629     -595.16855     -657.64566      0             -657.64566      62.477119    
   9778000   4892.7085     -586.17214     -648.78293      0             -648.78293      62.610788    
   9779000   4883.3346     -594.68006     -657.17089      0             -657.17089      62.490833    
   9780000   4898.9342     -598.61311     -661.30357      0             -661.30357      62.690458    
   9781000   4921.666      -594.72152     -657.70287      0             -657.70287      62.98135     
   9782000   4856.2589     -600.36662     -662.51097      0             -662.51097      62.144353    
   9783000   4903.3807     -611.06719     -673.81454      0             -673.81454      62.747358    
   9784000   4893.6448     -605.32642     -667.94919      0             -667.94919      62.622771    
   9785000   4854.3358     -601.47995     -663.59969      0             -663.59969      62.119742    
   9786000   4897.8957     -598.78744     -661.46461      0             -661.46461      62.677168    
   9787000   4899.1249     -605.25289     -667.94579      0             -667.94579      62.692897    
   9788000   4878.0762     -602.27629     -664.69983      0             -664.69983      62.423543    
   9789000   4888.0573     -596.87494     -659.4262       0             -659.4262       62.551268    
   9790000   4892.0629     -592.45878     -655.06131      0             -655.06131      62.602527    
   9791000   4913.0443     -594.73433     -657.60535      0             -657.60535      62.871021    
   9792000   4897.6363     -589.26362     -651.93747      0             -651.93747      62.673849    
   9793000   4915.9187     -597.79451     -660.70231      0             -660.70231      62.907804    
   9794000   4909.8726     -597.67443     -660.50487      0             -660.50487      62.830434    
   9795000   4881.2999     -598.51175     -660.97655      0             -660.97655      62.464796    
   9796000   4908.6732     -602.82352     -665.6386       0             -665.6386       62.815085    
   9797000   4907.357      -604.66123     -667.45947      0             -667.45947      62.798241    
   9798000   4905.5923     -600.88416     -663.65982      0             -663.65982      62.77566     
   9799000   4917.0498     -611.32825     -674.25052      0             -674.25052      62.922279    
   9800000   4889.0476     -599.77517     -662.33911      0             -662.33911      62.563941    
   9801000   4905.4783     -590.41715     -653.19135      0             -653.19135      62.7742      
   9802000   4918.9451     -596.99723     -659.94377      0             -659.94377      62.946532    
   9803000   4911.389      -602.60461     -665.45445      0             -665.45445      62.849839    
   9804000   4891.4245     -613.53093     -676.12528      0             -676.12528      62.594357    
   9805000   4915.5907     -600.23227     -663.13588      0             -663.13588      62.903607    
   9806000   4892.4681     -600.14182     -662.74953      0             -662.74953      62.607713    
   9807000   4897.3646     -603.97618     -666.64655      0             -666.64655      62.670372    
   9808000   4893.9576     -606.02866     -668.65543      0             -668.65543      62.626773    
   9809000   4906.4496     -605.9058      -668.69243      0             -668.69243      62.78663     
   9810000   4902.9462     -598.43966     -661.18146      0             -661.18146      62.741798    
   9811000   4899.2671     -599.85109     -662.54581      0             -662.54581      62.694718    
   9812000   4914.6613     -602.41236     -665.30407      0             -665.30407      62.891713    
   9813000   4897.48       -596.84974     -659.52159      0             -659.52159      62.671848    
   9814000   4898.6951     -611.70829     -674.39569      0             -674.39569      62.687398    
   9815000   4903.2761     -601.86115     -664.60717      0             -664.60717      62.74602     
   9816000   4911.9425     -597.00287     -659.85979      0             -659.85979      62.856922    
   9817000   4881.9476     -600.74625     -663.21933      0             -663.21933      62.473085    
   9818000   4895.6548     -606.21235     -668.86084      0             -668.86084      62.648492    
   9819000   4924.6781     -606.59549     -669.61539      0             -669.61539      63.019896    
   9820000   4911.8329     -600.82155     -663.67707      0             -663.67707      62.855519    
   9821000   4896.002      -600.73615     -663.38908      0             -663.38908      62.652935    
   9822000   4932.1293     -596.60166     -659.71691      0             -659.71691      63.115247    
   9823000   4916.3396     -607.52051     -670.4337       0             -670.4337       62.913191    
   9824000   4922.0739     -598.73051     -661.71708      0             -661.71708      62.986571    
   9825000   4907.4946     -604.4587      -667.2587       0             -667.2587       62.800003    
   9826000   4911.7929     -601.03869     -663.8937       0             -663.8937       62.855007    
   9827000   4923.8071     -605.38033     -668.38908      0             -668.38908      63.00875     
   9828000   4890.3565     -603.95482     -666.53551      0             -666.53551      62.580691    
   9829000   4909.6501     -603.47223     -666.29982      0             -666.29982      62.827587    
   9830000   4885.1711     -589.75177     -652.2661       0             -652.2661       62.514334    
   9831000   4940.1432     -589.02305     -652.24084      0             -652.24084      63.217798    
   9832000   4923.1409     -589.47122     -652.47144      0             -652.47144      63.000225    
   9833000   4932.1169     -596.91996     -660.03504      0             -660.03504      63.115088    
   9834000   4924.489      -599.89053     -662.90801      0             -662.90801      63.017476    
   9835000   4913.8034     -608.11005     -670.99078      0             -670.99078      62.880735    
   9836000   4902.6865     -606.17061     -668.90908      0             -668.90908      62.738475    
   9837000   4927.6749     -598.88635     -661.9446       0             -661.9446       63.058246    
   9838000   4918.093      -599.31954     -662.25517      0             -662.25517      62.935