ITEM: TIMESTEP
0
ITEM: NUMBER OF ATOMS
3
ITEM: BOX BOUNDS pp pp pp
0.0000000000000000e+00 1.0000000000000000e+01
0.0000000000000000e+00 1.0000000000000000e+01
0.0000000000000000e+00 1.0000000000000000e+01
ITEM: ATOMS id type xs ys zs
1 1 0.630374 0.496942 0.302744
2 1 0.426777 0.633013 0.448404
3 1 0.519586 0.477346 0.557433
ITEM: TIMESTEP
1000
ITEM: NUMBER OF ATOMS
3
ITEM: BOX BOUNDS pp pp pp
0.0000000000000000e+00 1.0000000000000000e+01
0.0000000000000000e+00 1.0000000000000000e+01
0.0000000000000000e+00 1.0000000000000000e+01
ITEM: ATOMS id type xs ys zs
1 1 0.628472 0.49763 0.305198
2 1 0.424931 0.637332 0.443943
3 1 0.523334 0.472339 0.55944
ITEM: TIMESTEP
2000
ITEM: NUMBER OF ATOMS
3
ITEM: BOX BOUNDS pp pp pp
0.0000000000000000e+00 1.0000000000000000e+01
0.0000000000000000e+00 1.0000000000000000e+01
0.0000000000000000e+00 1.0000000000000000e+01
ITEM: ATOMS id type xs ys zs
1 1 0.626342 0.498388 0.307968
2 1 0.424584 0.639271 0.440993
3 1 0.52581 0.469642 0.559621
ITEM: TIMESTEP
3000
ITEM: NUMBER OF ATOMS
3
ITEM: BOX BOUNDS pp pp pp
0.0000000000000000e+00 1.0000000000000000e+01
0.0000000000000000e+00 1.0000000000000000e+01
0.0000000000000000e+00 1.0000000000000000e+01
ITEM: ATOMS id type xs ys zs
1 1 0.623943 0.499226 0.311118
2 1 0.424936 0.640196 0.43857
3 1 0.527857 0.46788 0.558894
ITEM: TIMESTEP
4000
ITEM: NUMBER OF ATOMS
3
ITEM: BOX BOUNDS pp pp pp
0.0000000000000000e+00 1.0000000000000000e+01
0.0000000000000000e+00 1.0000000000000000e+01
0.0000000000000000e+00 1.0000000000000000e+01
ITEM: ATOMS id type xs ys zs
1 1 0.621415 0.500289 0.3141
2 1 0.425756 0.640581 0.436234
3 1 0.529565 0.466432 0.558247
ITEM: TIMESTEP
5000
ITEM: NUMBER OF ATOMS
3
ITEM: BOX BOUNDS pp pp pp
0.0000000000000000e+00 1.0000000000000000e+01
0.0000000000000000e+00 1.0000000000000000e+01
0.0000000000000000e+00 1.0000000000000000e+01
ITEM: ATOMS id type xs ys zs
1 1 0.618979 0.501791 0.316079
2 1 0.426997 0.64062 0.433719
3 1 0.53076 0.46489 0.558784
ITEM: TIMESTEP
6000
ITEM: NUMBER OF ATOMS
3
ITEM: BOX BOUNDS pp pp pp
0.0000000000000000e+00 1.0000000000000000e+01
0.0000000000000000e+00 1.0000000000000000e+01
0.0000000000000000e+00 1.0000000000000000e+01
ITEM: ATOMS id type xs ys zs
1 1 0.617326 0.502959 0.317144
2 1 0.427454 0.641429 0.431304
3 1 0.531956 0.462913 0.560133
ITEM: TIMESTEP
7000
ITEM: NUMBER OF ATOMS
3
ITEM: BOX BOUNDS pp pp pp
0.0000000000000000e+00 1.0000000000000000e+01
0.0000000000000000e+00 1.0000000000000000e+01
0.0000000000000000e+00 1.0000000000000000e+01
ITEM: ATOMS id type xs ys zs
1 1 0.61631 0.503458 0.318209
2 1 0.42693 0.643125 0.429158
3 1 0.533497 0.460718 0.561215
ITEM: TIMESTEP
8000
ITEM: NUMBER OF ATOMS
3
ITEM: BOX BOUNDS pp pp pp
0.0000000000000000e+00 1.0000000000000000e+01
0.0000000000000000e+00 1.0000000000000000e+01
0.0000000000000000e+00 1.0000000000000000e+01
ITEM: ATOMS id type xs ys zs
1 1 0.615499 0.503719 0.319316
2 1 0.426027 0.645197 0.427052
3 1 0.535211 0.458385 0.562214
ITEM: TIMESTEP
9000
ITEM: NUMBER OF ATOMS
3
ITEM: BOX BOUNDS pp pp pp
0.0000000000000000e+00 1.0000000000000000e+01
0.0000000000000000e+00 1.0000000000000000e+01
0.0000000000000000e+00 1.0000000000000000e+01
ITEM: ATOMS id type xs ys zs
1 1 0.614328 0.504145 0.320821
2 1 0.425383 0.647099 0.424756
3 1 0.537025 0.456057 0.563005
ITEM: TIMESTEP
10000
ITEM: NUMBER OF ATOMS
3
ITEM: BOX BOUNDS pp pp pp
0.0000000000000000e+00 1.0000000000000000e+01
0.0000000000000000e+00 1.0000000000000000e+01
0.0000000000000000e+00 1.0000000000000000e+01
ITEM: ATOMS id type xs ys zs
1 1 0.614409 0.504024 0.320888
2 1 0.425792 0.646281 0.425483
3 1 0.536535 0.456996 0.562211
ITEM: TIMESTEP
11000
ITEM: NUMBER OF ATOMS
3
ITEM: BOX BOUNDS pp pp pp
0.0000000000000000e+00 1.0000000000000000e+01
0.0000000000000000e+00 1.0000000000000000e+01
0.0000000000000000e+00 1.0000000000000000e+01
ITEM: ATOMS id type xs ys zs
1 1 0.614727 0.504289 0.319767
2 1 0.42597 0.646031 0.425602
3 1 0.536039 0.456981 0.563213
ITEM: TIMESTEP
12000
ITEM: NUMBER OF ATOMS
3
ITEM: BOX BOUNDS pp pp pp
0.0000000000000000e+00 1.0000000000000000e+01
0.0000000000000000e+00 1.0000000000000000e+01
0.0000000000000000e+00 1.0000000000000000e+01
ITEM: ATOMS id type xs ys zs
1 1 0.615314 0.503227 0.320601
2 1 0.424253 0.647973 0.425341
3 1 0.537169 0.456101 0.562639
ITEM: TIMESTEP
13000
ITEM: NUMBER OF ATOMS
3
ITEM: BOX BOUNDS pp pp pp
0.0000000000000000e+00 1.0000000000000000e+01
0.0000000000000000e+00 1.0000000000000000e+01
0.0000000000000000e+00 1.0000000000000000e+01
ITEM: ATOMS id type xs ys zs
1 1 0.614004 0.505027 0.319805
2 1 0.426943 0.645207 0.425231
3 1 0.535789 0.457067 0.563546
ITEM: TIMESTEP
14000
ITEM: NUMBER OF ATOMS
3
ITEM: BOX BOUNDS pp pp pp
0.0000000000000000e+00 1.0000000000000000e+01
0.0000000000000000e+00 1.0000000000000000e+01
0.0000000000000000e+00 1.0000000000000000e+01
ITEM: ATOMS id type xs ys zs
1 1 0.613956 0.50425 0.321355
2 1 0.425873 0.646545 0.42483
3 1 0.536907 0.456506 0.562397
ITEM: TIMESTEP
15000
ITEM: NUMBER OF ATOMS
3
ITEM: BOX BOUNDS pp pp pp
0.0000000000000000e+00 1.0000000000000000e+01
0.0000000000000000e+00 1.0000000000000000e+01
0.0000000000000000e+00 1.0000000000000000e+01
ITEM: ATOMS id type xs ys zs
1 1 0.615261 0.503804 0.319623
2 1 0.425707 0.645984 0.426207
3 1 0.535768 0.457513 0.562752
ITEM: TIMESTEP
16000
ITEM: NUMBER OF ATOMS
3
ITEM: BOX BOUNDS pp pp pp
0.0000000000000000e+00 1.0000000000000000e+01
0.0000000000000000e+00 1.0000000000000000e+01
0.0000000000000000e+00 1.0000000000000000e+01
ITEM: ATOMS id type xs ys zs
1 1 0.613356 0.505108 0.320928
2 1 0.426135 0.647018 0.423428
3 1 0.537245 0.455175 0.564225
ITEM: TIMESTEP
17000
ITEM: NUMBER OF ATOMS
3
ITEM: BOX BOUNDS pp pp pp
0.0000000000000000e+00 1.0000000000000000e+01
0.0000000000000000e+00 1.0000000000000000e+01
0.0000000000000000e+00 1.0000000000000000e+01
ITEM: ATOMS id type xs ys zs
1 1 0.615325 0.503566 0.319943
2 1 0.425245 0.646633 0.425901
3 1 0.536166 0.457103 0.562737
ITEM: TIMESTEP
18000
ITEM: NUMBER OF ATOMS
3
ITEM: BOX BOUNDS pp pp pp
0.0000000000000000e+00 1.0000000000000000e+01
0.0000000000000000e+00 1.0000000000000000e+01
0.0000000000000000e+00 1.0000000000000000e+01
ITEM: ATOMS id type xs ys zs
1 1 0.614296 0.504163 0.320851
2 1 0.426411 0.645507 0.425715
3 1 0.53603 0.457631 0.562015
ITEM: TIMESTEP
19000
ITEM: NUMBER OF ATOMS
3
ITEM: BOX BOUNDS pp pp pp
0.0000000000000000e+00 1.0000000000000000e+01
0.0000000000000000e+00 1.0000000000000000e+01
0.0000000000000000e+00 1.0000000000000000e+01
ITEM: ATOMS id type xs ys zs
1 1 0.61533 0.503646 0.319784
2 1 0.425113 0.646928 0.425607
3 1 0.536293 0.456727 0.56319
ITEM: TIMESTEP
20000
ITEM: NUMBER OF ATOMS
3
ITEM: BOX BOUNDS pp pp pp
0.0000000000000000e+00 1.0000000000000000e+01
0.0000000000000000e+00 1.0000000000000000e+01
0.0000000000000000e+00 1.0000000000000000e+01
ITEM: ATOMS id type xs ys zs
1 1 0.614048 0.505324 0.319162
2 1 0.427981 0.643756 0.425906
3 1 0.534707 0.458221 0.563513
ITEM: TIMESTEP
21000
ITEM: NUMBER OF ATOMS
3
ITEM: BOX BOUNDS pp pp pp
0.0000000000000000e+00 1.0000000000000000e+01
0.0000000000000000e+00 1.0000000000000000e+01
0.0000000000000000e+00 1.0000000000000000e+01
ITEM: ATOMS id type xs ys zs
1 1 0.614916 0.503499 0.320874
2 1 0.425138 0.646955 0.425508
3 1 0.536683 0.456847 0.5622
ITEM: TIMESTEP
22000
ITEM: NUMBER OF ATOMS
3
ITEM: BOX BOUNDS pp pp pp
0.0000000000000000e+00 1.0000000000000000e+01
0.0000000000000000e+00 1.0000000000000000e+01
0.0000000000000000e+00 1.0000000000000000e+01
ITEM: ATOMS id type xs ys zs
1 1 0.613653 0.502715 0.324828
2 1 0.424959 0.64725 0.425306
3 1 0.538124 0.457335 0.558448
ITEM: TIMESTEP
23000
ITEM: NUMBER OF ATOMS
3
ITEM: BOX BOUNDS pp pp pp
0.0000000000000000e+00 1.0000000000000000e+01
0.0000000000000000e+00 1.0000000000000000e+01
0.0000000000000000e+00 1.0000000000000000e+01
ITEM: ATOMS id type xs ys zs
1 1 0.613602 0.502085 0.326108
2 1 0.423663 0.648993 0.424591
3 1 0.539471 0.456222 0.557883
ITEM: TIMESTEP
24000
ITEM: NUMBER OF ATOMS
3
ITEM: BOX BOUNDS pp pp pp
0.0000000000000000e+00 1.0000000000000000e+01
0.0000000000000000e+00 1.0000000000000000e+01
0.0000000000000000e+00 1.0000000000000000e+01
ITEM: ATOMS id type xs ys zs
1 1 0.614798 0.502687 0.322629
2 1 0.424135 0.648111 0.425314
3 1 0.537803 0.456503 0.560638
ITEM: TIMESTEP
25000
ITEM: NUMBER OF ATOMS
3
ITEM: BOX BOUNDS pp pp pp
0.0000000000000000e+00 1.0000000000000000e+01
0.0000000000000000e+00 1.0000000000000000e+01
0.0000000000000000e+00 1.0000000000000000e+01
ITEM: ATOMS id type xs ys zs
1 1 0.614257 0.505111 0.31915
2 1 0.427132 0.644934 0.425372
3 1 0.535348 0.457256 0.56406
ITEM: TIMESTEP
26000
ITEM: NUMBER OF ATOMS
3
ITEM: BOX BOUNDS pp pp pp
0.0000000000000000e+00 1.0000000000000000e+01
0.0000000000000000e+00 1.0000000000000000e+01
0.0000000000000000e+00 1.0000000000000000e+01
ITEM: ATOMS id type xs ys zs
1 1 0.611511 0.506692 0.321593
2 1 0.428495 0.64497 0.422623
3 1 0.536731 0.45564 0.564366
ITEM: TIMESTEP
27000
ITEM: NUMBER OF ATOMS
3
ITEM: BOX BOUNDS pp pp pp
0.0000000000000000e+00 1.0000000000000000e+01
0.0000000000000000e+00 1.0000000000000000e+01
0.0000000000000000e+00 1.0000000000000000e+01
ITEM: ATOMS id type xs ys zs
1 1 0.613248 0.505225 0.320923
2 1 0.427299 0.645238 0.424473
3 1 0.536189 0.456839 0.563185
ITEM: TIMESTEP
28000
ITEM: NUMBER OF ATOMS
3
ITEM: BOX BOUNDS pp pp pp
0.0000000000000000e+00 1.0000000000000000e+01
0.0000000000000000e+00 1.0000000000000000e+01
0.0000000000000000e+00 1.0000000000000000e+01
ITEM: ATOMS id type xs ys zs
1 1 0.615946 0.502857 0.320049
2 1 0.424224 0.647647 0.426009
3 1 0.536565 0.456797 0.562523
ITEM: TIMESTEP
29000
ITEM: NUMBER OF ATOMS
3
ITEM: BOX BOUNDS pp pp pp
0.0000000000000000e+00 1.0000000000000000e+01
0.0000000000000000e+00 1.0000000000000000e+01
0.0000000000000000e+00 1.0000000000000000e+01
ITEM: ATOMS id type xs ys zs
1 1 0.612475 0.506121 0.320765
2 1 0.427597 0.645623 0.423165
3 1 0.536665 0.455557 0.564652
ITEM: TIMESTEP
30000
ITEM: NUMBER OF ATOMS
3
ITEM: BOX BOUNDS pp pp pp
0.0000000000000000e+00 1.0000000000000000e+01
0.0000000000000000e+00 1.0000000000000000e+01
0.0000000000000000e+00 1.0000000000000000e+01
ITEM: ATOMS id type xs ys zs
1 1 0.60966 0.507895 0.32298
2 1 0.430123 0.643784 0.421642
3 1 0.536954 0.455622 0.56396
ITEM: TIMESTEP
31000
ITEM: NUMBER OF ATOMS
3
ITEM: BOX BOUNDS pp pp pp
0.0000000000000000e+00 1.0000000000000000e+01
0.0000000000000000e+00 1.0000000000000000e+01
0.0000000000000000e+00 1.0000000000000000e+01
ITEM: ATOMS id type xs ys zs
1 1 0.611741 0.506901 0.320747
2 1 0.429073 0.643932 0.423429
3 1 0.535922 0.456469 0.564405
ITEM: TIMESTEP
32000
ITEM: NUMBER OF ATOMS
3
ITEM: BOX BOUNDS pp pp pp
0.0000000000000000e+00 1.0000000000000000e+01
0.0000000000000000e+00 1.0000000000000000e+01
0.0000000000000000e+00 1.0000000000000000e+01
ITEM: ATOMS id type xs ys zs
1 1 0.615709 0.503405 0.319491
2 1 0.424999 0.646683 0.426292
3 1 0.536029 0.457214 0.562799
ITEM: TIMESTEP
33000
ITEM: NUMBER OF ATOMS
3
ITEM: BOX BOUNDS pp pp pp
0.0000000000000000e+00 1.0000000000000000e+01
0.0000000000000000e+00 1.0000000000000000e+01
0.0000000000000000e+00 1.0000000000000000e+01
ITEM: ATOMS id type xs ys zs
1 1 0.612126 0.504176 0.325094
2 1 0.425766 0.647386 0.423465
3 1 0.538844 0.455739 0.560023
ITEM: TIMESTEP
34000
ITEM: NUMBER OF ATOMS
3
ITEM: BOX BOUNDS pp pp pp
0.0000000000000000e+00 1.0000000000000000e+01
0.0000000000000000e+00 1.0000000000000000e+01
0.0000000000000000e+00 1.0000000000000000e+01
ITEM: ATOMS id type xs ys zs
1 1 0.611741 0.502768 0.32849
2 1 0.424873 0.648209 0.42368
3 1 0.540123 0.456323 0.556411
ITEM: TIMESTEP
35000
ITEM: NUMBER OF ATOMS
3
ITEM: BOX BOUNDS pp pp pp
0.0000000000000000e+00 1.0000000000000000e+01
0.0000000000000000e+00 1.0000000000000000e+01
0.0000000000000000e+00 1.0000000000000000e+01
ITEM: ATOMS id type xs ys zs
1 1 0.614909 0.502166 0.323387
2 1 0.424418 0.647353 0.426178
3 1 0.53741 0.457782 0.559016
ITEM: TIMESTEP
36000
ITEM: NUMBER OF ATOMS
3
ITEM: BOX BOUNDS pp pp pp
0.0000000000000000e+00 1.0000000000000000e+01
0.0000000000000000e+00 1.0000000000000000e+01
0.0000000000000000e+00 1.0000000000000000e+01
ITEM: ATOMS id type xs ys zs
1 1 0.614755 0.50483 0.318698
2 1 0.426067 0.646493 0.424545
3 1 0.535914 0.455978 0.565339
ITEM: TIMESTEP
37000
ITEM: NUMBER OF ATOMS
3
ITEM: BOX BOUNDS pp pp pp
0.0000000000000000e+00 1.0000000000000000e+01
0.0000000000000000e+00 1.0000000000000000e+01
0.0000000000000000e+00 1.0000000000000000e+01
ITEM: ATOMS id type xs ys zs
1 1 0.612553 0.504338 0.323952
2 1 0.42618 0.646939 0.423488
3 1 0.538004 0.456024 0.561142
ITEM: TIMESTEP
38000
ITEM: NUMBER OF ATOMS
3
ITEM: BOX BOUNDS pp pp pp
0.0000000000000000e+00 1.0000000000000000e+01
0.0000000000000000e+00 1.0000000000000000e+01
0.0000000000000000e+00 1.0000000000000000e+01
ITEM: ATOMS id type xs ys zs
1 1 0.615284 0.501992 0.322973
2 1 0.424892 0.64646 0.426919
3 1 0.53656 0.458849 0.55869
ITEM: TIMESTEP
39000
ITEM: NUMBER OF ATOMS
3
ITEM: BOX BOUNDS pp pp pp
0.0000000000000000e+00 1.0000000000000000e+01
0.0000000000000000e+00 1.0000000000000000e+01
0.0000000000000000e+00 1.0000000000000000e+01
ITEM: ATOMS id type xs ys zs
1 1 0.616557 0.503646 0.317368
2 1 0.427027 0.643591 0.428093
3 1 0.533152 0.460063 0.56312
ITEM: TIMESTEP
40000
ITEM: NUMBER OF ATOMS
3
ITEM: BOX BOUNDS pp pp pp
0.0000000000000000e+00 1.0000000000000000e+01
0.0000000000000000e+00 1.0000000000000000e+01
0.0000000000000000e+00 1.0000000000000000e+01
ITEM: ATOMS id type xs ys zs
1 1 0.614285 0.503897 0.321371
2 1 0.426968 0.644865 0.425822
3 1 0.535483 0.45854 0.561389
ITEM: TIMESTEP
41000
ITEM: NUMBER OF ATOMS
3
ITEM: BOX BOUNDS pp pp pp
0.0000000000000000e+00 1.0000000000000000e+01
0.0000000000000000e+00 1.0000000000000000e+01
0.0000000000000000e+00 1.0000000000000000e+01
ITEM: ATOMS id type xs ys zs
1 1 0.614063 0.504242 0.321159
2 1 0.425978 0.646895 0.423968
3 1 0.536696 0.456164 0.563454
ITEM: TIMESTEP
42000
ITEM: NUMBER OF ATOMS
3
ITEM: BOX BOUNDS pp pp pp
0.0000000000000000e+00 1.0000000000000000e+01
0.0000000000000000e+00 1.0000000000000000e+01
0.0000000000000000e+00 1.0000000000000000e+01
ITEM: ATOMS id type xs ys zs
1 1 0.61636 0.503593 0.317857
2 1 0.42676 0.644081 0.4277
3 1 0.533616 0.459627 0.563025
ITEM: TIMESTEP
43000
ITEM: NUMBER OF ATOMS
3
ITEM: BOX BOUNDS pp pp pp
0.0000000000000000e+00 1.0000000000000000e+01
0.0000000000000000e+00 1.0000000000000000e+01
0.0000000000000000e+00 1.0000000000000000e+01
ITEM: ATOMS id type xs ys zs
1 1 0.614022 0.503741 0.32218
2 1 0.428121 0.642772 0.427476
3 1 0.534593 0.460789 0.558926
ITEM: TIMESTEP
44000
ITEM: NUMBER OF ATOMS
3
ITEM: BOX BOUNDS pp pp pp
0.0000000000000000e+00 1.0000000000000000e+01
0.0000000000000000e+00 1.0000000000000000e+01
0.0000000000000000e+00 1.0000000000000000e+01
ITEM: ATOMS id type xs ys zs
1 1 0.615409 0.503743 0.319447
2 1 0.425126 0.647338 0.424813
3 1 0.536202 0.456219 0.564322
ITEM: TIMESTEP
45000
ITEM: NUMBER OF ATOMS
3
ITEM: BOX BOUNDS pp pp pp
0.0000000000000000e+00 1.0000000000000000e+01
0.0000000000000000e+00 1.0000000000000000e+01
0.0000000000000000e+00 1.0000000000000000e+01
ITEM: ATOMS id type xs ys zs
1 1 0.613578 0.503993 0.322581
2 1 0.427375 0.644441 0.425815
3 1 0.535783 0.458867 0.560186
ITEM: TIMESTEP
46000
ITEM: NUMBER OF ATOMS
3
ITEM: BOX BOUNDS pp pp pp
0.0000000000000000e+00 1.0000000000000000e+01
0.0000000000000000e+00 1.0000000000000000e+01
0.0000000000000000e+00 1.0000000000000000e+01
ITEM: ATOMS id type xs ys zs
1 1 0.617188 0.502866 0.31759
2 1 0.42582 0.644746 0.428304
3 1 0.533728 0.459688 0.562688
ITEM: TIMESTEP
47000
ITEM: NUMBER OF ATOMS
3
ITEM: BOX BOUNDS pp pp pp
0.0000000000000000e+00 1.0000000000000000e+01
0.0000000000000000e+00 1.0000000000000000e+01
0.0000000000000000e+00 1.0000000000000000e+01
ITEM: ATOMS id type xs ys zs
1 1 0.613782 0.503723 0.322686
2 1 0.425933 0.646536 0.424728
3 1 0.537021 0.457042 0.561167
ITEM: TIMESTEP
48000
ITEM: NUMBER OF ATOMS
3
ITEM: BOX BOUNDS pp pp pp
0.0000000000000000e+00 1.0000000000000000e+01
0.0000000000000000e+00 1.0000000000000000e+01
0.0000000000000000e+00 1.0000000000000000e+01
ITEM: ATOMS id type xs ys zs
1 1 0.614806 0.503978 0.320193
2 1 0.426556 0.645215 0.425977
3 1 0.535374 0.458108 0.562411
ITEM: TIMESTEP
49000
ITEM: NUMBER OF ATOMS
3
ITEM: BOX BOUNDS pp pp pp
0.0000000000000000e+00 1.0000000000000000e+01
0.0000000000000000e+00 1.0000000000000000e+01
0.0000000000000000e+00 1.0000000000000000e+01
ITEM: ATOMS id type xs ys zs
1 1 0.617616 0.502831 0.316814
2 1 0.427116 0.642155 0.430608
3 1 0.532004 0.462315 0.56116
ITEM: TIMESTEP
50000
ITEM: NUMBER OF ATOMS
3
ITEM: BOX BOUNDS pp pp pp
0.0000000000000000e+00 1.0000000000000000e+01
0.0000000000000000e+00 1.0000000000000000e+01
0.0000000000000000e+00 1.0000000000000000e+01
ITEM: ATOMS id type xs ys zs
1 1 0.616026 0.502164 0.321191
2 1 0.425503 0.644916 0.428609
3 1 0.535207 0.460222 0.558781
ITEM: TIMESTEP
51000
ITEM: NUMBER OF ATOMS
3
ITEM: BOX BOUNDS pp pp pp
0.0000000000000000e+00 1.0000000000000000e+01
0.0000000000000000e+00 1.0000000000000000e+01
0.0000000000000000e+00 1.0000000000000000e+01
ITEM: ATOMS id type xs ys zs
1 1 0.613163 0.505562 0.320457
2 1 0.426752 0.646385 0.423399
3 1 0.536821 0.455354 0.564725
ITEM: TIMESTEP
52000
ITEM: NUMBER OF ATOMS
3
ITEM: BOX BOUNDS pp pp pp
0.0000000000000000e+00 1.0000000000000000e+01
0.0000000000000000e+00 1.0000000000000000e+01
0.0000000000000000e+00 1.0000000000000000e+01
ITEM: ATOMS id type xs ys zs
1 1 0.609272 0.509586 0.320574
2 1 0.431271 0.643117 0.420632
3 1 0.536193 0.454598 0.567376
ITEM: TIMESTEP
53000
ITEM: NUMBER OF ATOMS
3
ITEM: BOX BOUNDS pp pp pp
0.0000000000000000e+00 1.0000000000000000e+01
0.0000000000000000e+00 1.0000000000000000e+01
0.0000000000000000e+00 1.0000000000000000e+01
ITEM: ATOMS id type xs ys zs
1 1 0.611269 0.506841 0.321789
2 1 0.4291 0.644144 0.42298
3 1 0.536368 0.456316 0.563812
ITEM: TIMESTEP
54000
ITEM: NUMBER OF ATOMS
3
ITEM: BOX BOUNDS pp pp pp
0.0000000000000000e+00 1.0000000000000000e+01
0.0000000000000000e+00 1.0000000000000000e+01
0.0000000000000000e+00 1.0000000000000000e+01
ITEM: ATOMS id type xs ys zs
1 1 0.615493 0.502726 0.321187
2 1 0.424709 0.646932 0.426394
3 1 0.536535 0.457642 0.561001
ITEM: TIMESTEP
55000
ITEM: NUMBER OF ATOMS
3
ITEM: BOX BOUNDS pp pp pp
0.0000000000000000e+00 1.0000000000000000e+01
0.0000000000000000e+00 1.0000000000000000e+01
0.0000000000000000e+00 1.0000000000000000e+01
ITEM: ATOMS id type xs ys zs
1 1 0.614489 0.500641 0.327068
2 1 0.422467 0.649608 0.425793
3 1 0.53978 0.457052 0.555721
ITEM: TIMESTEP
56000
ITEM: NUMBER OF ATOMS
3
ITEM: BOX BOUNDS pp pp pp
0.0000000000000000e+00 1.0000000000000000e+01
0.0000000000000000e+00 1.0000000000000000e+01
0.0000000000000000e+00 1.0000000000000000e+01
ITEM: ATOMS id type xs ys zs
1 1 0.613084 0.503478 0.324518
2 1 0.425567 0.646748 0.425052
3 1 0.538085 0.457076 0.559012
ITEM: TIMESTEP
57000
ITEM: NUMBER OF ATOMS
3
ITEM: BOX BOUNDS pp pp pp
0.0000000000000000e+00 1.0000000000000000e+01
0.0000000000000000e+00 1.0000000000000000e+01
0.0000000000000000e+00 1.0000000000000000e+01
ITEM: ATOMS id type xs ys zs
1 1 0.614472 0.504897 0.319128
2 1 0.426793 0.645087 0.425751
3 1 0.535471 0.457317 0.563702
ITEM: TIMESTEP
58000
ITEM: NUMBER OF ATOMS
3
ITEM: BOX BOUNDS pp pp pp
0.0000000000000000e+00 1.0000000000000000e+01
0.0000000000000000e+00 1.0000000000000000e+01
0.0000000000000000e+00 1.0000000000000000e+01
ITEM: ATOMS id type xs ys zs
1 1 0.609894 0.508133 0.322074
2 1 0.430459 0.643106 0.422249
3 1 0.536384 0.456061 0.564259
ITEM: TIMESTEP
59000
ITEM: NUMBER OF ATOMS
3
ITEM: BOX BOUNDS pp pp pp
0.0000000000000000e+00 1.0000000000000000e+01
0.0000000000000000e+00 1.0000000000000000e+01
0.0000000000000000e+00 1.0000000000000000e+01
ITEM: ATOMS id type xs ys zs
1 1 0.612096 0.506008 0.321721
2 1 0.42801 0.644908 0.423693
3 1 0.53663 0.456385 0.563167
ITEM: TIMESTEP
60000
ITEM: NUMBER OF ATOMS
3
ITEM: BOX BOUNDS pp pp pp
0.0000000000000000e+00 1.0000000000000000e+01
0.0000000000000000e+00 1.0000000000000000e+01
0.0000000000000000e+00 1.0000000000000000e+01
ITEM: ATOMS id type xs ys zs
1 1 0.617998 0.502265 0.317122
2 1 0.423989 0.646592 0.428447
3 1 0.534749 0.458444 0.563012
ITEM: TIMESTEP
61000
ITEM: NUMBER OF ATOMS
3
ITEM: BOX BOUNDS pp pp pp
0.0000000000000000e+00 1.0000000000000000e+01
0.0000000000000000e+00 1.0000000000000000e+01
0.0000000000000000e+00 1.0000000000000000e+01
ITEM: ATOMS id type xs ys zs
1 1 0.613718 0.505012 0.320397
2 1 0.427649 0.644093 0.42593
3 1 0.535369 0.458197 0.562255
ITEM: TIMESTEP
62000
ITEM: NUMBER OF ATOMS
3
ITEM: BOX BOUNDS pp pp pp
0.0000000000000000e+00 1.0000000000000000e+01
0.0000000000000000e+00 1.0000000000000000e+01
0.0000000000000000e+00 1.0000000000000000e+01
ITEM: ATOMS id type xs ys zs
1 1 0.610157 0.507065 0.323558
2 1 0.428975 0.644927 0.421758
3 1 0.537604 0.455309 0.563266
ITEM: TIMESTEP
63000
ITEM: NUMBER OF ATOMS
3
ITEM: BOX BOUNDS pp pp pp
0.0000000000000000e+00 1.0000000000000000e+01
0.0000000000000000e+00 1.0000000000000000e+01
0.0000000000000000e+00 1.0000000000000000e+01
ITEM: ATOMS id type xs ys zs
1 1 0.611172 0.504368 0.326612
2 1 0.426014 0.647808 0.422186
3 1 0.539549 0.455125 0.559784
ITEM: TIMESTEP
64000
ITEM: NUMBER OF ATOMS
3
ITEM: BOX BOUNDS pp pp pp
0.0000000000000000e+00 1.0000000000000000e+01
0.0000000000000000e+00 1.0000000000000000e+01
0.0000000000000000e+00 1.0000000000000000e+01
ITEM: ATOMS id type xs ys zs
1 1 0.61624 0.502003 0.321073
2 1 0.424984 0.645943 0.427707
3 1 0.535512 0.459356 0.559802
ITEM: TIMESTEP
65000
ITEM: NUMBER OF ATOMS
3
ITEM: BOX BOUNDS pp pp pp
0.0000000000000000e+00 1.0000000000000000e+01
0.0000000000000000e+00 1.0000000000000000e+01
0.0000000000000000e+00 1.0000000000000000e+01
ITEM: ATOMS id type xs ys zs
1 1 0.61517 0.505133 0.317314
2 1 0.430202 0.639814 0.428921
3 1 0.531364 0.462354 0.562347
ITEM: TIMESTEP
66000
ITEM: NUMBER OF ATOMS
3
ITEM: BOX BOUNDS pp pp pp
0.0000000000000000e+00 1.0000000000000000e+01
0.0000000000000000e+00 1.0000000000000000e+01
0.0000000000000000e+00 1.0000000000000000e+01
ITEM: ATOMS id type xs ys zs
1 1 0.617384 0.502488 0.317913
2 1 0.42549 0.644927 0.428615
3 1 0.533862 0.459887 0.562053
ITEM: TIMESTEP
67000
ITEM: NUMBER OF ATOMS
3
ITEM: BOX BOUNDS pp pp pp
0.0000000000000000e+00 1.0000000000000000e+01
0.0000000000000000e+00 1.0000000000000000e+01
0.0000000000000000e+00 1.0000000000000000e+01
ITEM: ATOMS id type xs ys zs
1 1 0.612033 0.505385 0.323014
2 1 0.426671 0.647269 0.421904
3 1 0.538033 0.454647 0.563663
ITEM: TIMESTEP
68000
ITEM: NUMBER OF ATOMS
3
ITEM: BOX BOUNDS pp pp pp
0.0000000000000000e+00 1.0000000000000000e+01
0.0000000000000000e+00 1.0000000000000000e+01
0.0000000000000000e+00 1.0000000000000000e+01
ITEM: ATOMS id type xs ys zs
1 1 0.610454 0.508374 0.32052
2 1 0.430776 0.642807 0.422186
3 1 0.535506 0.45612 0.565876
ITEM: TIMESTEP
69000
ITEM: NUMBER OF ATOMS
3
ITEM: BOX BOUNDS pp pp pp
0.0000000000000000e+00 1.0000000000000000e+01
0.0000000000000000e+00 1.0000000000000000e+01
0.0000000000000000e+00 1.0000000000000000e+01
ITEM: ATOMS id type xs ys zs
1 1 0.612872 0.504325 0.323348
2 1 0.426612 0.646136 0.424141
3 1 0.537252 0.45684 0.561092
ITEM: TIMESTEP
70000
ITEM: NUMBER OF ATOMS
3
ITEM: BOX BOUNDS pp pp pp
0.0000000000000000e+00 1.0000000000000000e+01
0.0000000000000000e+00 1.0000000000000000e+01
0.0000000000000000e+00 1.0000000000000000e+01
ITEM: ATOMS id type xs ys zs
1 1 0.614419 0.500885 0.32675
2 1 0.423355 0.648653 0.425836
3 1 0.538963 0.457763 0.555995
ITEM: TIMESTEP
71000
ITEM: NUMBER OF ATOMS
3
ITEM: BOX BOUNDS pp pp pp
0.0000000000000000e+00 1.0000000000000000e+01
0.0000000000000000e+00 1.0000000000000000e+01
0.0000000000000000e+00 1.0000000000000000e+01
ITEM: ATOMS id type xs ys zs
1 1 0.612578 0.50441 0.323767
2 1 0.425836 0.647425 0.423253
3 1 0.538322 0.455466 0.561561
ITEM: TIMESTEP
72000
ITEM: NUMBER OF ATOMS
3
ITEM: BOX BOUNDS pp pp pp
0.0000000000000000e+00 1.0000000000000000e+01
0.0000000000000000e+00 1.0000000000000000e+01
0.0000000000000000e+00 1.0000000000000000e+01
ITEM: ATOMS id type xs ys zs
1 1 0.617027 0.503015 0.317627
2 1 0.425684 0.644755 0.428554
3 1 0.534025 0.459531 0.562401
ITEM: TIMESTEP
73000
ITEM: NUMBER OF ATOMS
3
ITEM: BOX BOUNDS pp pp pp
0.0000000000000000e+00 1.0000000000000000e+01
0.0000000000000000e+00 1.0000000000000000e+01
0.0000000000000000e+00 1.0000000000000000e+01
ITEM: ATOMS id type xs ys zs
1 1 0.613554 0.502817 0.324832
2 1 0.427914 0.642182 0.428988
3 1 0.535268 0.462303 0.554761
ITEM: TIMESTEP
74000
ITEM: NUMBER OF ATOMS
3
ITEM: BOX BOUNDS pp pp pp
0.0000000000000000e+00 1.0000000000000000e+01
0.0000000000000000e+00 1.0000000000000000e+01
0.0000000000000000e+00 1.0000000000000000e+01
ITEM: ATOMS id type xs ys zs
1 1 0.614882 0.502772 0.322303
2 1 0.424342 0.647579 0.425903
3 1 0.537512 0.45695 0.560375
ITEM: TIMESTEP
75000
ITEM: NUMBER OF ATOMS
3
ITEM: BOX BOUNDS pp pp pp
0.0000000000000000e+00 1.0000000000000000e+01
0.0000000000000000e+00 1.0000000000000000e+01
0.0000000000000000e+00 1.0000000000000000e+01
ITEM: ATOMS id type xs ys zs
1 1 0.610711 0.508408 0.31995
2 1 0.430515 0.642615 0.423059
3 1 0.53551 0.456278 0.565572
ITEM: TIMESTEP
76000
ITEM: NUMBER OF ATOMS
3
ITEM: BOX BOUNDS pp pp pp
0.0000000000000000e+00 1.0000000000000000e+01
0.0000000000000000e+00 1.0000000000000000e+01
0.0000000000000000e+00 1.0000000000000000e+01
ITEM: ATOMS id type xs ys zs
1 1 0.608986 0.51065 0.319146
2 1 0.432918 0.64082 0.421695
3 1 0.534833 0.455832 0.567741
ITEM: TIMESTEP
77000
ITEM: NUMBER OF ATOMS
3
ITEM: BOX BOUNDS pp pp pp
0.0000000000000000e+00 1.0000000000000000e+01
0.0000000000000000e+00 1.0000000000000000e+01
0.0000000000000000e+00 1.0000000000000000e+01
ITEM: ATOMS id type xs ys zs
1 1 0.612904 0.504765 0.32246
2 1 0.425967 0.647143 0.423525
3 1 0.537865 0.455393 0.562597
ITEM: TIMESTEP
78000
ITEM: NUMBER OF ATOMS
3
ITEM: BOX BOUNDS pp pp pp
0.0000000000000000e+00 1.0000000000000000e+01
0.0000000000000000e+00 1.0000000000000000e+01
0.0000000000000000e+00 1.0000000000000000e+01
ITEM: ATOMS id type xs ys zs
1 1 0.61606 0.503209 0.319165
2 1 0.426854 0.643339 0.428905
3 1 0.533821 0.460753 0.560511
ITEM: TIMESTEP
79000
ITEM: NUMBER OF ATOMS
3
ITEM: BOX BOUNDS pp pp pp
0.0000000000000000e+00 1.0000000000000000e+01
0.0000000000000000e+00 1.0000000000000000e+01
0.0000000000000000e+00 1.0000000000000000e+01
ITEM: ATOMS id type xs ys zs
1 1 0.613627 0.506447 0.317887
2 1 0.432306 0.63749 0.429137
3 1 0.530803 0.463365 0.561557
ITEM: TIMESTEP
80000
ITEM: NUMBER OF ATOMS
3
ITEM: BOX BOUNDS pp pp pp
0.0000000000000000e+00 1.0000000000000000e+01
0.0000000000000000e+00 1.0000000000000000e+01
0.0000000000000000e+00 1.0000000000000000e+01
ITEM: ATOMS id type xs ys zs
1 1 0.615596 0.503735 0.319094
2 1 0.425815 0.645865 0.426219
3 1 0.535326 0.457701 0.563269
ITEM: TIMESTEP
81000
ITEM: NUMBER OF ATOMS
3
ITEM: BOX BOUNDS pp pp pp
0.0000000000000000e+00 1.0000000000000000e+01
0.0000000000000000e+00 1.0000000000000000e+01
0.0000000000000000e+00 1.0000000000000000e+01
ITEM: ATOMS id type xs ys zs
1 1 0.612149 0.502547 0.328103
2 1 0.42492 0.647988 0.424
3 1 0.539667 0.456766 0.556479
ITEM: TIMESTEP
82000
ITEM: NUMBER OF ATOMS
3
ITEM: BOX BOUNDS pp pp pp
0.0000000000000000e+00 1.0000000000000000e+01
0.0000000000000000e+00 1.0000000000000000e+01
0.0000000000000000e+00 1.0000000000000000e+01
ITEM: ATOMS id type xs ys zs
1 1 0.614457 0.501253 0.325985
2 1 0.423771 0.648265 0.425742
3 1 0.538508 0.457782 0.556855
ITEM: TIMESTEP
83000
ITEM: NUMBER OF ATOMS
3
ITEM: BOX BOUNDS pp pp pp
0.0000000000000000e+00 1.0000000000000000e+01
0.0000000000000000e+00 1.0000000000000000e+01
0.0000000000000000e+00 1.0000000000000000e+01
ITEM: ATOMS id type xs ys zs
1 1 0.615368 0.504508 0.318094
2 1 0.425705 0.646829 0.424627
3 1 0.535663 0.455963 0.56586
ITEM: TIMESTEP
84000
ITEM: NUMBER OF ATOMS
3
ITEM: BOX BOUNDS pp pp pp
0.0000000000000000e+00 1.0000000000000000e+01
0.0000000000000000e+00 1.0000000000000000e+01
0.0000000000000000e+00 1.0000000000000000e+01
ITEM: ATOMS id type xs ys zs
1 1 0.615683 0.501616 0.322893
2 1 0.425071 0.645623 0.428134
3 1 0.535982 0.460062 0.557555
ITEM: TIMESTEP
85000
ITEM: NUMBER OF ATOMS
3
ITEM: BOX BOUNDS pp pp pp
0.0000000000000000e+00 1.0000000000000000e+01
0.0000000000000000e+00 1.0000000000000000e+01
0.0000000000000000e+00 1.0000000000000000e+01
ITEM: ATOMS id type xs ys zs
1 1 0.612656 0.502334 0.327504
2 1 0.423659 0.649446 0.42375
3 1 0.540421 0.455522 0.557328
ITEM: TIMESTEP
86000
ITEM: NUMBER OF ATOMS
3
ITEM: BOX BOUNDS pp pp pp
0.0000000000000000e+00 1.0000000000000000e+01
0.0000000000000000e+00 1.0000000000000000e+01
0.0000000000000000e+00 1.0000000000000000e+01
ITEM: ATOMS id type xs ys zs
1 1 0.614279 0.50454 0.320177
2 1 0.426635 0.645082 0.426072
3 1 0.535822 0.45768 0.562333
ITEM: TIMESTEP
87000
ITEM: NUMBER OF ATOMS
3
ITEM: BOX BOUNDS pp pp pp
0.0000000000000000e+00 1.0000000000000000e+01
0.0000000000000000e+00 1.0000000000000000e+01
0.0000000000000000e+00 1.0000000000000000e+01
ITEM: ATOMS id type xs ys zs
1 1 0.614916 0.503679 0.320537
2 1 0.42749 0.642673 0.428902
3 1 0.53433 0.460949 0.559143
ITEM: TIMESTEP
88000
ITEM: NUMBER OF ATOMS
3
ITEM: BOX BOUNDS pp pp pp
0.0000000000000000e+00 1.0000000000000000e+01
0.0000000000000000e+00 1.0000000000000000e+01
0.0000000000000000e+00 1.0000000000000000e+01
ITEM: ATOMS id type xs ys zs
1 1 0.611863 0.504838 0.324374
2 1 0.426861 0.645841 0.424205
3 1 0.538013 0.456622 0.560003
ITEM: TIMESTEP
89000
ITEM: NUMBER OF ATOMS
3
ITEM: BOX BOUNDS pp pp pp
0.0000000000000000e+00 1.0000000000000000e+01
0.0000000000000000e+00 1.0000000000000000e+01
0.0000000000000000e+00 1.0000000000000000e+01
ITEM: ATOMS id type xs ys zs
1 1 0.615264 0.504004 0.319244
2 1 0.426399 0.644617 0.427406
3 1 0.535073 0.45868 0.561931
ITEM: TIMESTEP
90000
ITEM: NUMBER OF ATOMS
3
ITEM: BOX BOUNDS pp pp pp
0.0000000000000000e+00 1.0000000000000000e+01
0.0000000000000000e+00 1.0000000000000000e+01
0.0000000000000000e+00 1.0000000000000000e+01
ITEM: ATOMS id type xs ys zs
1 1 0.618999 0.50203 0.315592
2 1 0.426866 0.640641 0.433936