ITEM: TIMESTEP
0
ITEM: NUMBER OF ATOMS
4
ITEM: BOX BOUNDS pp pp pp
0.0000000000000000e+00 1.0000000000000000e+01
0.0000000000000000e+00 1.0000000000000000e+01
0.0000000000000000e+00 1.0000000000000000e+01
ITEM: ATOMS id type xs ys zs
1 1 0.630374 0.496942 0.302744
2 1 0.426777 0.633013 0.448404
3 1 0.519586 0.477346 0.557433
4 1 0.584257 0.600695 0.473768
ITEM: TIMESTEP
1000
ITEM: NUMBER OF ATOMS
4
ITEM: BOX BOUNDS pp pp pp
0.0000000000000000e+00 1.0000000000000000e+01
0.0000000000000000e+00 1.0000000000000000e+01
0.0000000000000000e+00 1.0000000000000000e+01
ITEM: ATOMS id type xs ys zs
1 1 0.630725 0.49161 0.295534
2 1 0.402888 0.638687 0.442692
3 1 0.511149 0.457075 0.569933
4 1 0.616231 0.620624 0.47419
ITEM: TIMESTEP
2000
ITEM: NUMBER OF ATOMS
4
ITEM: BOX BOUNDS pp pp pp
0.0000000000000000e+00 1.0000000000000000e+01
0.0000000000000000e+00 1.0000000000000000e+01
0.0000000000000000e+00 1.0000000000000000e+01
ITEM: ATOMS id type xs ys zs
1 1 0.629639 0.488964 0.292924
2 1 0.397106 0.63961 0.440461
3 1 0.509271 0.451585 0.572253
4 1 0.624977 0.627836 0.47671
ITEM: TIMESTEP
3000
ITEM: NUMBER OF ATOMS
4
ITEM: BOX BOUNDS pp pp pp
0.0000000000000000e+00 1.0000000000000000e+01
0.0000000000000000e+00 1.0000000000000000e+01
0.0000000000000000e+00 1.0000000000000000e+01
ITEM: ATOMS id type xs ys zs
1 1 0.628029 0.487479 0.292227
2 1 0.394376 0.63997 0.438582
3 1 0.508737 0.448352 0.572957
4 1 0.629851 0.632195 0.478584
ITEM: TIMESTEP
4000
ITEM: NUMBER OF ATOMS
4
ITEM: BOX BOUNDS pp pp pp
0.0000000000000000e+00 1.0000000000000000e+01
0.0000000000000000e+00 1.0000000000000000e+01
0.0000000000000000e+00 1.0000000000000000e+01
ITEM: ATOMS id type xs ys zs
1 1 0.625822 0.486516 0.292673
2 1 0.39315 0.639457 0.43699
3 1 0.508432 0.44634 0.572483
4 1 0.633589 0.635682 0.480203
ITEM: TIMESTEP
5000
ITEM: NUMBER OF ATOMS
4
ITEM: BOX BOUNDS pp pp pp
0.0000000000000000e+00 1.0000000000000000e+01
0.0000000000000000e+00 1.0000000000000000e+01
0.0000000000000000e+00 1.0000000000000000e+01
ITEM: ATOMS id type xs ys zs
1 1 0.623072 0.485917 0.294029
2 1 0.392807 0.63824 0.435537
3 1 0.508139 0.445004 0.571165
4 1 0.636976 0.638834 0.481619
ITEM: TIMESTEP
6000
ITEM: NUMBER OF ATOMS
4
ITEM: BOX BOUNDS pp pp pp
0.0000000000000000e+00 1.0000000000000000e+01
0.0000000000000000e+00 1.0000000000000000e+01
0.0000000000000000e+00 1.0000000000000000e+01
ITEM: ATOMS id type xs ys zs
1 1 0.62002 0.485565 0.296009
2 1 0.392709 0.636815 0.434024
3 1 0.507889 0.443743 0.569511
4 1 0.640375 0.641872 0.482806
ITEM: TIMESTEP
7000
ITEM: NUMBER OF ATOMS
4
ITEM: BOX BOUNDS pp pp pp
0.0000000000000000e+00 1.0000000000000000e+01
0.0000000000000000e+00 1.0000000000000000e+01
0.0000000000000000e+00 1.0000000000000000e+01
ITEM: ATOMS id type xs ys zs
1 1 0.616772 0.485373 0.29845
2 1 0.392594 0.635322 0.432415
3 1 0.507667 0.442394 0.567666
4 1 0.64396 0.644907 0.483818
ITEM: TIMESTEP
8000
ITEM: NUMBER OF ATOMS
4
ITEM: BOX BOUNDS pp pp pp
0.0000000000000000e+00 1.0000000000000000e+01
0.0000000000000000e+00 1.0000000000000000e+01
0.0000000000000000e+00 1.0000000000000000e+01
ITEM: ATOMS id type xs ys zs
1 1 0.613136 0.485305 0.301344
2 1 0.392766 0.633739 0.430606
3 1 0.507866 0.441383 0.56543
4 1 0.647225 0.647569 0.484969
ITEM: TIMESTEP
9000
ITEM: NUMBER OF ATOMS
4
ITEM: BOX BOUNDS pp pp pp
0.0000000000000000e+00 1.0000000000000000e+01
0.0000000000000000e+00 1.0000000000000000e+01
0.0000000000000000e+00 1.0000000000000000e+01
ITEM: ATOMS id type xs ys zs
1 1 0.608918 0.485263 0.304492
2 1 0.393996 0.63235 0.428426
3 1 0.509001 0.440825 0.562916
4 1 0.649078 0.649558 0.486516
ITEM: TIMESTEP
10000
ITEM: NUMBER OF ATOMS
4
ITEM: BOX BOUNDS pp pp pp
0.0000000000000000e+00 1.0000000000000000e+01
0.0000000000000000e+00 1.0000000000000000e+01
0.0000000000000000e+00 1.0000000000000000e+01
ITEM: ATOMS id type xs ys zs
1 1 0.604462 0.484945 0.307485
2 1 0.395664 0.631411 0.425989
3 1 0.510747 0.440211 0.560449
4 1 0.65012 0.65143 0.488426
ITEM: TIMESTEP
11000
ITEM: NUMBER OF ATOMS
4
ITEM: BOX BOUNDS pp pp pp
0.0000000000000000e+00 1.0000000000000000e+01
0.0000000000000000e+00 1.0000000000000000e+01
0.0000000000000000e+00 1.0000000000000000e+01
ITEM: ATOMS id type xs ys zs
1 1 0.599883 0.484212 0.310207
2 1 0.397481 0.630786 0.423467
3 1 0.512809 0.439509 0.557971
4 1 0.65082 0.653488 0.490704
ITEM: TIMESTEP
12000
ITEM: NUMBER OF ATOMS
4
ITEM: BOX BOUNDS pp pp pp
0.0000000000000000e+00 1.0000000000000000e+01
0.0000000000000000e+00 1.0000000000000000e+01
0.0000000000000000e+00 1.0000000000000000e+01
ITEM: ATOMS id type xs ys zs
1 1 0.595134 0.483432 0.310627
2 1 0.399927 0.62995 0.420562
3 1 0.514679 0.438809 0.557249
4 1 0.651253 0.655804 0.493912
ITEM: TIMESTEP
13000
ITEM: NUMBER OF ATOMS
4
ITEM: BOX BOUNDS pp pp pp
0.0000000000000000e+00 1.0000000000000000e+01
0.0000000000000000e+00 1.0000000000000000e+01
0.0000000000000000e+00 1.0000000000000000e+01
ITEM: ATOMS id type xs ys zs
1 1 0.590944 0.482698 0.309311
2 1 0.402041 0.629443 0.417497
3 1 0.517032 0.438904 0.557852
4 1 0.650975 0.656951 0.497689
ITEM: TIMESTEP
14000
ITEM: NUMBER OF ATOMS
4
ITEM: BOX BOUNDS pp pp pp
0.0000000000000000e+00 1.0000000000000000e+01
0.0000000000000000e+00 1.0000000000000000e+01
0.0000000000000000e+00 1.0000000000000000e+01
ITEM: ATOMS id type xs ys zs
1 1 0.590996 0.48281 0.309463
2 1 0.401554 0.630279 0.416895
3 1 0.517975 0.438806 0.558259
4 1 0.650468 0.656101 0.497733
ITEM: TIMESTEP
15000
ITEM: NUMBER OF ATOMS
4
ITEM: BOX BOUNDS pp pp pp
0.0000000000000000e+00 1.0000000000000000e+01
0.0000000000000000e+00 1.0000000000000000e+01
0.0000000000000000e+00 1.0000000000000000e+01
ITEM: ATOMS id type xs ys zs
1 1 0.592615 0.483128 0.309949
2 1 0.401009 0.629923 0.41845
3 1 0.516404 0.438755 0.557813
4 1 0.650965 0.656189 0.496137
ITEM: TIMESTEP
16000
ITEM: NUMBER OF ATOMS
4
ITEM: BOX BOUNDS pp pp pp
0.0000000000000000e+00 1.0000000000000000e+01
0.0000000000000000e+00 1.0000000000000000e+01
0.0000000000000000e+00 1.0000000000000000e+01
ITEM: ATOMS id type xs ys zs
1 1 0.589733 0.481427 0.308305
2 1 0.402785 0.62945 0.417074
3 1 0.517861 0.439397 0.557478
4 1 0.650614 0.657722 0.499492
ITEM: TIMESTEP
17000
ITEM: NUMBER OF ATOMS
4
ITEM: BOX BOUNDS pp pp pp
0.0000000000000000e+00 1.0000000000000000e+01
0.0000000000000000e+00 1.0000000000000000e+01
0.0000000000000000e+00 1.0000000000000000e+01
ITEM: ATOMS id type xs ys zs
1 1 0.592325 0.483056 0.309172
2 1 0.40152 0.628408 0.419015
3 1 0.515249 0.439464 0.557553
4 1 0.651898 0.657067 0.496608
ITEM: TIMESTEP
18000
ITEM: NUMBER OF ATOMS
4
ITEM: BOX BOUNDS pp pp pp
0.0000000000000000e+00 1.0000000000000000e+01
0.0000000000000000e+00 1.0000000000000000e+01
0.0000000000000000e+00 1.0000000000000000e+01
ITEM: ATOMS id type xs ys zs
1 1 0.590449 0.483151 0.310375
2 1 0.402505 0.629996 0.416859
3 1 0.51742 0.437733 0.55801
4 1 0.650618 0.657116 0.497106
ITEM: TIMESTEP
19000
ITEM: NUMBER OF ATOMS
4
ITEM: BOX BOUNDS pp pp pp
0.0000000000000000e+00 1.0000000000000000e+01
0.0000000000000000e+00 1.0000000000000000e+01
0.0000000000000000e+00 1.0000000000000000e+01
ITEM: ATOMS id type xs ys zs
1 1 0.591639 0.483878 0.309772
2 1 0.401567 0.628838 0.417759
3 1 0.516185 0.438957 0.558279
4 1 0.651602 0.656323 0.496538
ITEM: TIMESTEP
20000
ITEM: NUMBER OF ATOMS
4
ITEM: BOX BOUNDS pp pp pp
0.0000000000000000e+00 1.0000000000000000e+01
0.0000000000000000e+00 1.0000000000000000e+01
0.0000000000000000e+00 1.0000000000000000e+01
ITEM: ATOMS id type xs ys zs
1 1 0.591818 0.481833 0.309113
2 1 0.401352 0.630341 0.418138
3 1 0.517451 0.439352 0.557441
4 1 0.650372 0.65647 0.497657
ITEM: TIMESTEP
21000
ITEM: NUMBER OF ATOMS
4
ITEM: BOX BOUNDS pp pp pp
0.0000000000000000e+00 1.0000000000000000e+01
0.0000000000000000e+00 1.0000000000000000e+01
0.0000000000000000e+00 1.0000000000000000e+01
ITEM: ATOMS id type xs ys zs
1 1 0.591503 0.483006 0.308469
2 1 0.401109 0.628977 0.417624
3 1 0.516599 0.439466 0.558494
4 1 0.651783 0.656546 0.497762
ITEM: TIMESTEP
22000
ITEM: NUMBER OF ATOMS
4
ITEM: BOX BOUNDS pp pp pp
0.0000000000000000e+00 1.0000000000000000e+01
0.0000000000000000e+00 1.0000000000000000e+01
0.0000000000000000e+00 1.0000000000000000e+01
ITEM: ATOMS id type xs ys zs
1 1 0.591258 0.481597 0.309182
2 1 0.402443 0.629394 0.418603
3 1 0.516274 0.438719 0.556963
4 1 0.651018 0.658286 0.497601
ITEM: TIMESTEP
23000
ITEM: NUMBER OF ATOMS
4
ITEM: BOX BOUNDS pp pp pp
0.0000000000000000e+00 1.0000000000000000e+01
0.0000000000000000e+00 1.0000000000000000e+01
0.0000000000000000e+00 1.0000000000000000e+01
ITEM: ATOMS id type xs ys zs
1 1 0.590337 0.483532 0.309286
2 1 0.40249 0.628323 0.417187
3 1 0.516969 0.439824 0.558002
4 1 0.651197 0.656316 0.497874
ITEM: TIMESTEP
24000
ITEM: NUMBER OF ATOMS
4
ITEM: BOX BOUNDS pp pp pp
0.0000000000000000e+00 1.0000000000000000e+01
0.0000000000000000e+00 1.0000000000000000e+01
0.0000000000000000e+00 1.0000000000000000e+01
ITEM: ATOMS id type xs ys zs
1 1 0.591382 0.483633 0.310555
2 1 0.402498 0.628895 0.418188
3 1 0.515845 0.438237 0.55758
4 1 0.651268 0.65723 0.496027
ITEM: TIMESTEP
25000
ITEM: NUMBER OF ATOMS
4
ITEM: BOX BOUNDS pp pp pp
0.0000000000000000e+00 1.0000000000000000e+01
0.0000000000000000e+00 1.0000000000000000e+01
0.0000000000000000e+00 1.0000000000000000e+01
ITEM: ATOMS id type xs ys zs
1 1 0.590271 0.482694 0.309282
2 1 0.402 0.630119 0.416527
3 1 0.517769 0.437906 0.558528
4 1 0.650954 0.657276 0.498012
ITEM: TIMESTEP
26000
ITEM: NUMBER OF ATOMS
4
ITEM: BOX BOUNDS pp pp pp
0.0000000000000000e+00 1.0000000000000000e+01
0.0000000000000000e+00 1.0000000000000000e+01
0.0000000000000000e+00 1.0000000000000000e+01
ITEM: ATOMS id type xs ys zs
1 1 0.592026 0.483432 0.309006
2 1 0.400573 0.629638 0.417563
3 1 0.516648 0.438643 0.558872
4 1 0.651745 0.656283 0.49691
ITEM: TIMESTEP
27000
ITEM: NUMBER OF ATOMS
4
ITEM: BOX BOUNDS pp pp pp
0.0000000000000000e+00 1.0000000000000000e+01
0.0000000000000000e+00 1.0000000000000000e+01
0.0000000000000000e+00 1.0000000000000000e+01
ITEM: ATOMS id type xs ys zs
1 1 0.591604 0.482292 0.310115
2 1 0.401782 0.630712 0.417949
3 1 0.517594 0.438446 0.557388
4 1 0.650012 0.656546 0.496897
ITEM: TIMESTEP
28000
ITEM: NUMBER OF ATOMS
4
ITEM: BOX BOUNDS pp pp pp
0.0000000000000000e+00 1.0000000000000000e+01
0.0000000000000000e+00 1.0000000000000000e+01
0.0000000000000000e+00 1.0000000000000000e+01
ITEM: ATOMS id type xs ys zs
1 1 0.590957 0.483178 0.309368
2 1 0.40189 0.629141 0.417479
3 1 0.517492 0.439946 0.55782
4 1 0.650654 0.65573 0.497682
ITEM: TIMESTEP
29000
ITEM: NUMBER OF ATOMS
4
ITEM: BOX BOUNDS pp pp pp
0.0000000000000000e+00 1.0000000000000000e+01
0.0000000000000000e+00 1.0000000000000000e+01
0.0000000000000000e+00 1.0000000000000000e+01
ITEM: ATOMS id type xs ys zs
1 1 0.592177 0.482216 0.309076
2 1 0.401321 0.62942 0.418834
3 1 0.516439 0.439579 0.557294
4 1 0.651056 0.65678 0.497145
ITEM: TIMESTEP
30000
ITEM: NUMBER OF ATOMS
4
ITEM: BOX BOUNDS pp pp pp
0.0000000000000000e+00 1.0000000000000000e+01
0.0000000000000000e+00 1.0000000000000000e+01
0.0000000000000000e+00 1.0000000000000000e+01
ITEM: ATOMS id type xs ys zs
1 1 0.590811 0.481675 0.308616
2 1 0.401792 0.629983 0.417575
3 1 0.517413 0.438743 0.557796
4 1 0.650978 0.657595 0.498362
ITEM: TIMESTEP
31000
ITEM: NUMBER OF ATOMS
4
ITEM: BOX BOUNDS pp pp pp
0.0000000000000000e+00 1.0000000000000000e+01
0.0000000000000000e+00 1.0000000000000000e+01
0.0000000000000000e+00 1.0000000000000000e+01
ITEM: ATOMS id type xs ys zs
1 1 0.590875 0.483183 0.30881
2 1 0.401987 0.628184 0.417837
3 1 0.51617 0.439543 0.55803
4 1 0.651961 0.657085 0.497672
ITEM: TIMESTEP
32000
ITEM: NUMBER OF ATOMS
4
ITEM: BOX BOUNDS pp pp pp
0.0000000000000000e+00 1.0000000000000000e+01
0.0000000000000000e+00 1.0000000000000000e+01
0.0000000000000000e+00 1.0000000000000000e+01
ITEM: ATOMS id type xs ys zs
1 1 0.590864 0.482475 0.310264
2 1 0.402926 0.629259 0.418316
3 1 0.516499 0.438481 0.556907
4 1 0.650704 0.65778 0.496863
ITEM: TIMESTEP
33000
ITEM: NUMBER OF ATOMS
4
ITEM: BOX BOUNDS pp pp pp
0.0000000000000000e+00 1.0000000000000000e+01
0.0000000000000000e+00 1.0000000000000000e+01
0.0000000000000000e+00 1.0000000000000000e+01
ITEM: ATOMS id type xs ys zs
1 1 0.59014 0.483425 0.30965
2 1 0.402367 0.629131 0.41677
3 1 0.517159 0.438316 0.558444
4 1 0.651327 0.657124 0.497486
ITEM: TIMESTEP
34000
ITEM: NUMBER OF ATOMS
4
ITEM: BOX BOUNDS pp pp pp
0.0000000000000000e+00 1.0000000000000000e+01
0.0000000000000000e+00 1.0000000000000000e+01
0.0000000000000000e+00 1.0000000000000000e+01
ITEM: ATOMS id type xs ys zs
1 1 0.591645 0.483462 0.309708
2 1 0.401391 0.629423 0.417831
3 1 0.516166 0.437976 0.558488
4 1 0.651791 0.657135 0.496323
ITEM: TIMESTEP
35000
ITEM: NUMBER OF ATOMS
4
ITEM: BOX BOUNDS pp pp pp
0.0000000000000000e+00 1.0000000000000000e+01
0.0000000000000000e+00 1.0000000000000000e+01
0.0000000000000000e+00 1.0000000000000000e+01
ITEM: ATOMS id type xs ys zs
1 1 0.591126 0.482833 0.31033
2 1 0.401942 0.630562 0.417433
3 1 0.517669 0.437981 0.557924
4 1 0.650256 0.65662 0.496663
ITEM: TIMESTEP
36000
ITEM: NUMBER OF ATOMS
4
ITEM: BOX BOUNDS pp pp pp
0.0000000000000000e+00 1.0000000000000000e+01
0.0000000000000000e+00 1.0000000000000000e+01
0.0000000000000000e+00 1.0000000000000000e+01
ITEM: ATOMS id type xs ys zs
1 1 0.591312 0.483628 0.309598
2 1 0.401334 0.629542 0.417299
3 1 0.517536 0.439337 0.558497
4 1 0.65081 0.655488 0.496955
ITEM: TIMESTEP
37000
ITEM: NUMBER OF ATOMS
4
ITEM: BOX BOUNDS pp pp pp
0.0000000000000000e+00 1.0000000000000000e+01
0.0000000000000000e+00 1.0000000000000000e+01
0.0000000000000000e+00 1.0000000000000000e+01
ITEM: ATOMS id type xs ys zs
1 1 0.592495 0.482168 0.309165
2 1 0.400804 0.630308 0.41869
3 1 0.516833 0.43892 0.557825
4 1 0.650861 0.6566 0.496669
ITEM: TIMESTEP
38000
ITEM: NUMBER OF ATOMS
4
ITEM: BOX BOUNDS pp pp pp
0.0000000000000000e+00 1.0000000000000000e+01
0.0000000000000000e+00 1.0000000000000000e+01
0.0000000000000000e+00 1.0000000000000000e+01
ITEM: ATOMS id type xs ys zs
1 1 0.590982 0.481822 0.308661
2 1 0.401572 0.63023 0.417631
3 1 0.518024 0.43941 0.557889
4 1 0.650415 0.656533 0.498168
ITEM: TIMESTEP
39000
ITEM: NUMBER OF ATOMS
4
ITEM: BOX BOUNDS pp pp pp
0.0000000000000000e+00 1.0000000000000000e+01
0.0000000000000000e+00 1.0000000000000000e+01
0.0000000000000000e+00 1.0000000000000000e+01
ITEM: ATOMS id type xs ys zs
1 1 0.591476 0.483041 0.30896
2 1 0.401938 0.628103 0.41871
3 1 0.516216 0.440496 0.557508
4 1 0.651364 0.656356 0.497171
ITEM: TIMESTEP
40000
ITEM: NUMBER OF ATOMS
4
ITEM: BOX BOUNDS pp pp pp
0.0000000000000000e+00 1.0000000000000000e+01
0.0000000000000000e+00 1.0000000000000000e+01
0.0000000000000000e+00 1.0000000000000000e+01
ITEM: ATOMS id type xs ys zs
1 1 0.590843 0.481448 0.309477
2 1 0.402818 0.629486 0.418693
3 1 0.516805 0.438905 0.556708
4 1 0.650527 0.658156 0.497471
ITEM: TIMESTEP
41000
ITEM: NUMBER OF ATOMS
4
ITEM: BOX BOUNDS pp pp pp
0.0000000000000000e+00 1.0000000000000000e+01
0.0000000000000000e+00 1.0000000000000000e+01
0.0000000000000000e+00 1.0000000000000000e+01
ITEM: ATOMS id type xs ys zs
1 1 0.590079 0.483333 0.308686
2 1 0.401971 0.628495 0.416941
3 1 0.516773 0.4388 0.558844
4 1 0.652171 0.657368 0.497878
ITEM: TIMESTEP
42000
ITEM: NUMBER OF ATOMS
4
ITEM: BOX BOUNDS pp pp pp
0.0000000000000000e+00 1.0000000000000000e+01
0.0000000000000000e+00 1.0000000000000000e+01
0.0000000000000000e+00 1.0000000000000000e+01
ITEM: ATOMS id type xs ys zs
1 1 0.591272 0.483156 0.310061
2 1 0.402082 0.629113 0.418312
3 1 0.515839 0.43778 0.557909
4 1 0.6518 0.657946 0.496068
ITEM: TIMESTEP
43000
ITEM: NUMBER OF ATOMS
4
ITEM: BOX BOUNDS pp pp pp
0.0000000000000000e+00 1.0000000000000000e+01
0.0000000000000000e+00 1.0000000000000000e+01
0.0000000000000000e+00 1.0000000000000000e+01
ITEM: ATOMS id type xs ys zs
1 1 0.590145 0.483111 0.310408
2 1 0.402427 0.630037 0.416907
3 1 0.517948 0.437978 0.55808
4 1 0.650474 0.65687 0.496954
ITEM: TIMESTEP
44000
ITEM: NUMBER OF ATOMS
4
ITEM: BOX BOUNDS pp pp pp
0.0000000000000000e+00 1.0000000000000000e+01
0.0000000000000000e+00 1.0000000000000000e+01
0.0000000000000000e+00 1.0000000000000000e+01
ITEM: ATOMS id type xs ys zs
1 1 0.591622 0.484077 0.309853
2 1 0.40082 0.629471 0.417467
3 1 0.517028 0.438712 0.558901
4 1 0.651523 0.655735 0.496128
ITEM: TIMESTEP
45000
ITEM: NUMBER OF ATOMS
4
ITEM: BOX BOUNDS pp pp pp
0.0000000000000000e+00 1.0000000000000000e+01
0.0000000000000000e+00 1.0000000000000000e+01
0.0000000000000000e+00 1.0000000000000000e+01
ITEM: ATOMS id type xs ys zs
1 1 0.59211 0.48193 0.309701
2 1 0.400885 0.63106 0.418462
3 1 0.517539 0.438313 0.557715
4 1 0.650459 0.656692 0.496472
ITEM: TIMESTEP
46000
ITEM: NUMBER OF ATOMS
4
ITEM: BOX BOUNDS pp pp pp
0.0000000000000000e+00 1.0000000000000000e+01
0.0000000000000000e+00 1.0000000000000000e+01
0.0000000000000000e+00 1.0000000000000000e+01
ITEM: ATOMS id type xs ys zs
1 1 0.590907 0.482652 0.308895
2 1 0.401385 0.629627 0.417604
3 1 0.518231 0.440241 0.558029
4 1 0.65047 0.655476 0.497822
ITEM: TIMESTEP
47000
ITEM: NUMBER OF ATOMS
4
ITEM: BOX BOUNDS pp pp pp
0.0000000000000000e+00 1.0000000000000000e+01
0.0000000000000000e+00 1.0000000000000000e+01
0.0000000000000000e+00 1.0000000000000000e+01
ITEM: ATOMS id type xs ys zs
1 1 0.592081 0.482443 0.309143
2 1 0.401515 0.628837 0.419404
3 1 0.51633 0.440142 0.5572
4 1 0.651067 0.656574 0.496602
ITEM: TIMESTEP
48000
ITEM: NUMBER OF ATOMS
4
ITEM: BOX BOUNDS pp pp pp
0.0000000000000000e+00 1.0000000000000000e+01
0.0000000000000000e+00 1.0000000000000000e+01
0.0000000000000000e+00 1.0000000000000000e+01
ITEM: ATOMS id type xs ys zs
1 1 0.590231 0.481224 0.30842
2 1 0.402384 0.629632 0.41805
3 1 0.517462 0.438918 0.557537
4 1 0.650916 0.658222 0.498342
ITEM: TIMESTEP
49000
ITEM: NUMBER OF ATOMS
4
ITEM: BOX BOUNDS pp pp pp
0.0000000000000000e+00 1.0000000000000000e+01
0.0000000000000000e+00 1.0000000000000000e+01
0.0000000000000000e+00 1.0000000000000000e+01
ITEM: ATOMS id type xs ys zs
1 1 0.590628 0.483452 0.308356
2 1 0.401771 0.627853 0.417935
3 1 0.516002 0.439325 0.558728
4 1 0.652592 0.657365 0.49733
ITEM: TIMESTEP
50000
ITEM: NUMBER OF ATOMS
4
ITEM: BOX BOUNDS pp pp pp
0.0000000000000000e+00 1.0000000000000000e+01
0.0000000000000000e+00 1.0000000000000000e+01
0.0000000000000000e+00 1.0000000000000000e+01
ITEM: ATOMS id type xs ys zs
1 1 0.590449 0.482611 0.310552
2 1 0.402968 0.629634 0.418211
3 1 0.516727 0.437425 0.557403
4 1 0.650849 0.658326 0.496183
ITEM: TIMESTEP
51000
ITEM: NUMBER OF ATOMS
4
ITEM: BOX BOUNDS pp pp pp
0.0000000000000000e+00 1.0000000000000000e+01
0.0000000000000000e+00 1.0000000000000000e+01
0.0000000000000000e+00 1.0000000000000000e+01
ITEM: ATOMS id type xs ys zs
1 1 0.589817 0.484059 0.310005
2 1 0.402085 0.629208 0.41653
3 1 0.517925 0.438451 0.558904
4 1 0.651166 0.656278 0.49691
ITEM: TIMESTEP
52000
ITEM: NUMBER OF ATOMS
4
ITEM: BOX BOUNDS pp pp pp
0.0000000000000000e+00 1.0000000000000000e+01
0.0000000000000000e+00 1.0000000000000000e+01
0.0000000000000000e+00 1.0000000000000000e+01
ITEM: ATOMS id type xs ys zs
1 1 0.592169 0.483319 0.310094
2 1 0.400644 0.630153 0.418449
3 1 0.516796 0.438089 0.558377
4 1 0.651384 0.656435 0.495429
ITEM: TIMESTEP
53000
ITEM: NUMBER OF ATOMS
4
ITEM: BOX BOUNDS pp pp pp
0.0000000000000000e+00 1.0000000000000000e+01
0.0000000000000000e+00 1.0000000000000000e+01
0.0000000000000000e+00 1.0000000000000000e+01
ITEM: ATOMS id type xs ys zs
1 1 0.590914 0.481985 0.309648
2 1 0.401215 0.631135 0.417618
3 1 0.518874 0.438723 0.557848
4 1 0.649989 0.656152 0.497235
ITEM: TIMESTEP
54000
ITEM: NUMBER OF ATOMS
4
ITEM: BOX BOUNDS pp pp pp
0.0000000000000000e+00 1.0000000000000000e+01
0.0000000000000000e+00 1.0000000000000000e+01
0.0000000000000000e+00 1.0000000000000000e+01
ITEM: ATOMS id type xs ys zs
1 1 0.591737 0.483155 0.308929
2 1 0.400856 0.628655 0.418766
3 1 0.517271 0.441009 0.55778
4 1 0.651128 0.655177 0.496874
ITEM: TIMESTEP
55000
ITEM: NUMBER OF ATOMS
4
ITEM: BOX BOUNDS pp pp pp
0.0000000000000000e+00 1.0000000000000000e+01
0.0000000000000000e+00 1.0000000000000000e+01
0.0000000000000000e+00 1.0000000000000000e+01
ITEM: ATOMS id type xs ys zs
1 1 0.591428 0.480809 0.309015
2 1 0.401822 0.630001 0.419505
3 1 0.517211 0.43928 0.55661
4 1 0.650532 0.657905 0.49722
ITEM: TIMESTEP
56000
ITEM: NUMBER OF ATOMS
4
ITEM: BOX BOUNDS pp pp pp
0.0000000000000000e+00 1.0000000000000000e+01
0.0000000000000000e+00 1.0000000000000000e+01
0.0000000000000000e+00 1.0000000000000000e+01
ITEM: ATOMS id type xs ys zs
1 1 0.589757 0.482637 0.307885
2 1 0.401804 0.628399 0.417451
3 1 0.517267 0.439505 0.558673
4 1 0.652165 0.657455 0.498341
ITEM: TIMESTEP
57000
ITEM: NUMBER OF ATOMS
4
ITEM: BOX BOUNDS pp pp pp
0.0000000000000000e+00 1.0000000000000000e+01
0.0000000000000000e+00 1.0000000000000000e+01
0.0000000000000000e+00 1.0000000000000000e+01
ITEM: ATOMS id type xs ys zs
1 1 0.590953 0.482902 0.309587
2 1 0.402334 0.628373 0.41909
3 1 0.51561 0.438295 0.557666
4 1 0.652096 0.658426 0.496006
ITEM: TIMESTEP
58000
ITEM: NUMBER OF ATOMS
4
ITEM: BOX BOUNDS pp pp pp
0.0000000000000000e+00 1.0000000000000000e+01
0.0000000000000000e+00 1.0000000000000000e+01
0.0000000000000000e+00 1.0000000000000000e+01
ITEM: ATOMS id type xs ys zs
1 1 0.589338 0.482951 0.310253
2 1 0.402972 0.629686 0.417096
3 1 0.51818 0.437861 0.558079
4 1 0.650502 0.657496 0.496921
ITEM: TIMESTEP
59000
ITEM: NUMBER OF ATOMS
4
ITEM: BOX BOUNDS pp pp pp
0.0000000000000000e+00 1.0000000000000000e+01
0.0000000000000000e+00 1.0000000000000000e+01
0.0000000000000000e+00 1.0000000000000000e+01
ITEM: ATOMS id type xs ys zs
1 1 0.591174 0.484644 0.310051
2 1 0.401108 0.629052 0.417652
3 1 0.51702 0.438502 0.559243
4 1 0.651692 0.655798 0.495403
ITEM: TIMESTEP
60000
ITEM: NUMBER OF ATOMS
4
ITEM: BOX BOUNDS pp pp pp
0.0000000000000000e+00 1.0000000000000000e+01
0.0000000000000000e+00 1.0000000000000000e+01
0.0000000000000000e+00 1.0000000000000000e+01
ITEM: ATOMS id type xs ys zs
1 1 0.591797 0.481957 0.309891
2 1 0.400904 0.631513 0.418573
3 1 0.518128 0.437812 0.55799
4 1 0.650164 0.656714 0.495896
ITEM: TIMESTEP
61000
ITEM: NUMBER OF ATOMS
4
ITEM: BOX BOUNDS pp pp pp
0.0000000000000000e+00 1.0000000000000000e+01
0.0000000000000000e+00 1.0000000000000000e+01
0.0000000000000000e+00 1.0000000000000000e+01
ITEM: ATOMS id type xs ys zs
1 1 0.59085 0.482804 0.30853
2 1 0.400882 0.629606 0.41783
3 1 0.518704 0.440512 0.558484
4 1 0.650556 0.655074 0.497505
ITEM: TIMESTEP
62000
ITEM: NUMBER OF ATOMS
4
ITEM: BOX BOUNDS pp pp pp
0.0000000000000000e+00 1.0000000000000000e+01
0.0000000000000000e+00 1.0000000000000000e+01
0.0000000000000000e+00 1.0000000000000000e+01
ITEM: ATOMS id type xs ys zs
1 1 0.592068 0.481941 0.309067
2 1 0.401385 0.629051 0.420124
3 1 0.51669 0.440241 0.556957
4 1 0.65085 0.656761 0.496201
ITEM: TIMESTEP
63000
ITEM: NUMBER OF ATOMS
4
ITEM: BOX BOUNDS pp pp pp
0.0000000000000000e+00 1.0000000000000000e+01
0.0000000000000000e+00 1.0000000000000000e+01
0.0000000000000000e+00 1.0000000000000000e+01
ITEM: ATOMS id type xs ys zs
1 1 0.589446 0.481209 0.308117
2 1 0.402364 0.629322 0.418007
3 1 0.518079 0.439296 0.557724
4 1 0.651103 0.658169 0.498501
ITEM: TIMESTEP
64000
ITEM: NUMBER OF ATOMS
4
ITEM: BOX BOUNDS pp pp pp
0.0000000000000000e+00 1.0000000000000000e+01
0.0000000000000000e+00 1.0000000000000000e+01
0.0000000000000000e+00 1.0000000000000000e+01
ITEM: ATOMS id type xs ys zs
1 1 0.59063 0.483439 0.3084
2 1 0.401422 0.627614 0.418615
3 1 0.515782 0.439125 0.558742
4 1 0.65316 0.657818 0.496592
ITEM: TIMESTEP
65000
ITEM: NUMBER OF ATOMS
4
ITEM: BOX BOUNDS pp pp pp
0.0000000000000000e+00 1.0000000000000000e+01
0.0000000000000000e+00 1.0000000000000000e+01
0.0000000000000000e+00 1.0000000000000000e+01
ITEM: ATOMS id type xs ys zs
1 1 0.589625 0.482231 0.310534
2 1 0.402868 0.630161 0.417917
3 1 0.517822 0.436991 0.557634
4 1 0.650678 0.658613 0.496264
ITEM: TIMESTEP
66000
ITEM: NUMBER OF ATOMS
4
ITEM: BOX BOUNDS pp pp pp
0.0000000000000000e+00 1.0000000000000000e+01
0.0000000000000000e+00 1.0000000000000000e+01
0.0000000000000000e+00 1.0000000000000000e+01
ITEM: ATOMS id type xs ys zs
1 1 0.590013 0.484805 0.310098
2 1 0.40149 0.628846 0.416938
3 1 0.518203 0.439094 0.559307
4 1 0.651287 0.655251 0.496008
ITEM: TIMESTEP
67000
ITEM: NUMBER OF ATOMS
4
ITEM: BOX BOUNDS pp pp pp
0.0000000000000000e+00 1.0000000000000000e+01
0.0000000000000000e+00 1.0000000000000000e+01
0.0000000000000000e+00 1.0000000000000000e+01
ITEM: ATOMS id type xs ys zs
1 1 0.592155 0.482284 0.310206
2 1 0.400756 0.630987 0.41936
3 1 0.517692 0.438251 0.557709
4 1 0.650389 0.656474 0.495074
ITEM: TIMESTEP
68000
ITEM: NUMBER OF ATOMS
4
ITEM: BOX BOUNDS pp pp pp
0.0000000000000000e+00 1.0000000000000000e+01
0.0000000000000000e+00 1.0000000000000000e+01
0.0000000000000000e+00 1.0000000000000000e+01
ITEM: ATOMS id type xs ys zs
1 1 0.590475 0.481798 0.308181
2 1 0.400779 0.630456 0.417882
3 1 0.519335 0.439902 0.558423
4 1 0.650404 0.655839 0.497863
ITEM: TIMESTEP
69000
ITEM: NUMBER OF ATOMS
4
ITEM: BOX BOUNDS pp pp pp
0.0000000000000000e+00 1.0000000000000000e+01
0.0000000000000000e+00 1.0000000000000000e+01
0.0000000000000000e+00 1.0000000000000000e+01
ITEM: ATOMS id type xs ys zs
1 1 0.591962 0.482426 0.308526
2 1 0.401122 0.628191 0.420369
3 1 0.516445 0.440908 0.557322
4 1 0.651464 0.65647 0.496133
ITEM: TIMESTEP
70000
ITEM: NUMBER OF ATOMS
4
ITEM: BOX BOUNDS pp pp pp
0.0000000000000000e+00 1.0000000000000000e+01
0.0000000000000000e+00 1.0000000000000000e+01
0.0000000000000000e+00 1.0000000000000000e+01
ITEM: ATOMS id type xs ys zs
1 1 0.589393 0.480805 0.308977
2 1 0.403292 0.629285 0.41907
3 1 0.518023 0.439341 0.556604
4 1 0.650286 0.658565 0.497698
ITEM: TIMESTEP
71000
ITEM: NUMBER OF ATOMS
4
ITEM: BOX BOUNDS pp pp pp
0.0000000000000000e+00 1.0000000000000000e+01
0.0000000000000000e+00 1.0000000000000000e+01
0.0000000000000000e+00 1.0000000000000000e+01
ITEM: ATOMS id type xs ys zs
1 1 0.589736 0.484292 0.308491
2 1 0.401713 0.627175 0.417985
3 1 0.516322 0.439249 0.559356
4 1 0.653222 0.65728 0.496517
ITEM: TIMESTEP
72000
ITEM: NUMBER OF ATOMS
4
ITEM: BOX BOUNDS pp pp pp
0.0000000000000000e+00 1.0000000000000000e+01
0.0000000000000000e+00 1.0000000000000000e+01
0.0000000000000000e+00 1.0000000000000000e+01
ITEM: ATOMS id type xs ys zs
1 1 0.590455 0.482161 0.310151
2 1 0.401862 0.630431 0.418684
3 1 0.517138 0.436276 0.558092
4 1 0.651537 0.659128 0.495423
ITEM: TIMESTEP
73000
ITEM: NUMBER OF ATOMS
4
ITEM: BOX BOUNDS pp pp pp
0.0000000000000000e+00 1.0000000000000000e+01
0.0000000000000000e+00 1.0000000000000000e+01
0.0000000000000000e+00 1.0000000000000000e+01
ITEM: ATOMS id type xs ys zs
1 1 0.589738 0.483811 0.309342
2 1 0.40079 0.629714 0.416805
3 1 0.519208 0.438864 0.559457
4 1 0.651256 0.655607 0.496745
ITEM: TIMESTEP
74000
ITEM: NUMBER OF ATOMS
4
ITEM: BOX BOUNDS pp pp pp
0.0000000000000000e+00 1.0000000000000000e+01
0.0000000000000000e+00 1.0000000000000000e+01
0.0000000000000000e+00 1.0000000000000000e+01
ITEM: ATOMS id type xs ys zs
1 1 0.59223 0.482682 0.310074
2 1 0.400435 0.630128 0.419904
3 1 0.51768 0.439423 0.557486
4 1 0.650648 0.655762 0.494885
ITEM: TIMESTEP
75000
ITEM: NUMBER OF ATOMS
4
ITEM: BOX BOUNDS pp pp pp
0.0000000000000000e+00 1.0000000000000000e+01
0.0000000000000000e+00 1.0000000000000000e+01
0.0000000000000000e+00 1.0000000000000000e+01
ITEM: ATOMS id type xs ys zs
1 1 0.590069 0.481109 0.308363
2 1 0.401376 0.630329 0.418671
3 1 0.519356 0.440029 0.557485
4 1 0.650192 0.656529 0.49783
ITEM: TIMESTEP
76000
ITEM: NUMBER OF ATOMS
4
ITEM: BOX BOUNDS pp pp pp
0.0000000000000000e+00 1.0000000000000000e+01
0.0000000000000000e+00 1.0000000000000000e+01
0.0000000000000000e+00 1.0000000000000000e+01
ITEM: ATOMS id type xs ys zs
1 1 0.591131 0.482435 0.307571
2 1 0.400928 0.62781 0.419993
3 1 0.516655 0.440792 0.557965
4 1 0.65228 0.656959 0.496822
ITEM: TIMESTEP
77000
ITEM: NUMBER OF ATOMS
4
ITEM: BOX BOUNDS pp pp pp
0.0000000000000000e+00 1.0000000000000000e+01
0.0000000000000000e+00 1.0000000000000000e+01
0.0000000000000000e+00 1.0000000000000000e+01
ITEM: ATOMS id type xs ys zs
1 1 0.589207 0.481397 0.309304
2 1 0.403376 0.629097 0.419225
3 1 0.517562 0.438143 0.557044
4 1 0.650848 0.659358 0.496776
ITEM: TIMESTEP
78000
ITEM: NUMBER OF ATOMS
4
ITEM: BOX BOUNDS pp pp pp
0.0000000000000000e+00 1.0000000000000000e+01
0.0000000000000000e+00 1.0000000000000000e+01
0.0000000000000000e+00 1.0000000000000000e+01
ITEM: ATOMS id type xs ys zs
1 1 0.588906 0.484827 0.309476
2 1 0.402594 0.627352 0.41774
3 1 0.517462 0.439335 0.559075
4 1 0.652031 0.656482 0.496059
ITEM: TIMESTEP
79000
ITEM: NUMBER OF ATOMS
4
ITEM: BOX BOUNDS pp pp pp
0.0000000000000000e+00 1.0000000000000000e+01
0.0000000000000000e+00 1.0000000000000000e+01
0.0000000000000000e+00 1.0000000000000000e+01
ITEM: ATOMS id type xs ys zs
1 1 0.590933 0.482966 0.310731
2 1 0.401785 0.6304 0.419374
3 1 0.517469 0.437041 0.557939
4 1 0.650806 0.657589 0.494306
ITEM: TIMESTEP
80000
ITEM: NUMBER OF ATOMS
4
ITEM: BOX BOUNDS pp pp pp
0.0000000000000000e+00 1.0000000000000000e+01
0.0000000000000000e+00 1.0000000000000000e+01
0.0000000000000000e+00 1.0000000000000000e+01
ITEM: ATOMS id type xs ys zs
1 1 0.590034 0.482795 0.30828
2 1 0.400188 0.630556 0.417394
3 1 0.52002 0.439196 0.559492
4 1 0.650751 0.655448 0.497183
ITEM: TIMESTEP
81000
ITEM: NUMBER OF ATOMS
4
ITEM: BOX BOUNDS pp pp pp
0.0000000000000000e+00 1.0000000000000000e+01
0.0000000000000000e+00 1.0000000000000000e+01
0.0000000000000000e+00 1.0000000000000000e+01
ITEM: ATOMS id type xs ys zs
1 1 0.59254 0.482358 0.308563
2 1 0.399669 0.629619 0.420531
3 1 0.517329 0.43981 0.558034
4 1 0.651456 0.656208 0.495221
ITEM: TIMESTEP
82000
ITEM: NUMBER OF ATOMS
4
ITEM: BOX BOUNDS pp pp pp
0.0000000000000000e+00 1.0000000000000000e+01
0.0000000000000000e+00 1.0000000000000000e+01
0.0000000000000000e+00 1.0000000000000000e+01
ITEM: ATOMS id type xs ys zs
1 1 0.589367 0.480585 0.308212
2 1 0.402203 0.629515 0.419369
3 1 0.518895 0.440007 0.556829
4 1 0.650528 0.657888 0.497939
ITEM: TIMESTEP
83000
ITEM: NUMBER OF ATOMS
4
ITEM: BOX BOUNDS pp pp pp