LAMMPS data file via write_data, version 29 Sep 2021, timestep = 10000

54 atoms
1 atom types

-50 50 xlo xhi
-50 50 ylo yhi
-50 50 zlo zhi

Masses

1 183.84

Atoms # charge

1 1 0 0 0 0 0 0 0
2 1 0 1.76 1.76 1.76 0 0 0
3 1 0 3.52 0 0 0 0 0
7 1 0 0 3.52 0 0 0 0
9 1 0 3.52 3.52 0 0 0 0
19 1 0 0 0 3.52 0 0 0
21 1 0 3.52 0 3.52 0 0 0
25 1 0 0 3.52 3.52 0 0 0
27 1 0 3.52 3.52 3.52 0 0 0
4 1 0 5.28 1.76 1.76 0 0 0
5 1 0 7.04 0 0 0 0 0
6 1 0 8.8 1.76 1.76 0 0 0
11 1 0 7.04 3.52 0 0 0 0
23 1 0 7.04 0 3.52 0 0 0
29 1 0 7.04 3.52 3.52 0 0 0
8 1 0 1.76 5.28 1.76 0 0 0
13 1 0 0 7.04 0 0 0 0
14 1 0 1.76 8.8 1.76 0 0 0
15 1 0 3.52 7.04 0 0 0 0
31 1 0 0 7.04 3.52 0 0 0
33 1 0 3.52 7.04 3.52 0 0 0
10 1 0 5.28 5.28 1.76 0 0 0
12 1 0 8.8 5.28 1.76 0 0 0
16 1 0 5.28 8.8 1.76 0 0 0
17 1 0 7.04 7.04 0 0 0 0
18 1 0 8.8 8.8 1.76 0 0 0
35 1 0 7.04 7.04 3.52 0 0 0
20 1 0 1.76 1.76 5.28 0 0 0
37 1 0 0 0 7.04 0 0 0
38 1 0 1.76 1.76 8.8 0 0 0
39 1 0 3.52 0 7.04 0 0 0
43 1 0 0 3.52 7.04 0 0 0
45 1 0 3.52 3.52 7.04 0 0 0
22 1 0 5.28 1.76 5.28 0 0 0
24 1 0 8.8 1.76 5.28 0 0 0
40 1 0 5.28 1.76 8.8 0 0 0
41 1 0 7.04 0 7.04 0 0 0
42 1 0 8.8 1.76 8.8 0 0 0
47 1 0 7.04 3.52 7.04 0 0 0
26 1 0 1.76 5.28 5.28 0 0 0
32 1 0 1.76 8.8 5.28 0 0 0
44 1 0 1.76 5.28 8.8 0 0 0
49 1 0 0 7.04 7.04 0 0 0
50 1 0 1.76 8.8 8.8 0 0 0
51 1 0 3.52 7.04 7.04 0 0 0
28 1 0 5.28 5.28 5.28 0 0 0
30 1 0 8.8 5.28 5.28 0 0 0
34 1 0 5.28 8.8 5.28 0 0 0
36 1 0 8.8 8.8 5.28 0 0 0
46 1 0 5.28 5.28 8.8 0 0 0
48 1 0 8.8 5.28 8.8 0 0 0
52 1 0 5.28 8.8 8.8 0 0 0
53 1 0 7.04 7.04 7.04 0 0 0
54 1 0 8.8 8.8 8.8 0 0 0

Velocities

1 0.0007379617200910498 -0.0013286325718289802 0.0017215661618226836
2 0.0016383310463813844 0.0015076163395549218 -0.00013701710006369113
3 -0.0003948911072499978 -0.00048418425750456354 -0.0013343288429153311
7 0.0009208647675568938 -0.0005608033573431214 1.0296493286872778e-05
9 0.000490649661821994 0.0035349253943098924 7.976382248509077e-05
19 0.0024081812797761893 -0.0024392158083805663 -0.0010941734338528015
21 0.002778842345279547 0.001855072126212122 8.357314119252379e-05
25 -0.0009373271259501788 -0.00023312092711848923 -0.0010780073360066498
27 0.0008996463412870801 0.0009856979625460715 -0.0006401898619346336
4 -0.0004309819427643778 0.0032800191855900207 -0.002827803102325488
5 0.00034838605058264344 -0.0031154774692748986 0.0040457738721234844
6 -0.0009666600920524288 -0.0017055504828637476 -0.00037574236493501865
11 -0.0031890339163007765 0.0012879090110169203 -0.004283361354618915
23 -0.005254433816261697 0.0019504340780810742 -0.0005805797284722271
29 0.002028692223072424 0.002836405941971198 -0.00026798991010781333
8 -0.0008423918779404627 0.0005888402977036049 -0.0006487855819055352
13 -0.0013273059390791918 0.0001676254177065063 0.004183962362209482
14 0.0005488651374247396 -0.002529752357240673 -0.0011976705242035047
15 0.0028777812236015004 0.0009751968985998196 0.0006338949720199755
31 -0.0010149294613090358 -0.001525091617645672 0.0006719026619162599
33 0.003777685764935272 -0.003510212953693487 -0.0013852829664316075
10 0.0029275982308852528 0.0013141085408666505 0.00289495395990041
12 0.0007554533805863646 0.0006021096691170419 0.0011414029279182886
16 -0.0008131731195892643 0.005065947971329739 -0.0015585902316267379
17 -0.0029178179201199018 0.0004096192267884873 -0.002304153023491424
18 0.001540386590652956 -0.001964622825979543 -0.002007363195720307
35 0.004617081851741061 -0.001461698224407612 0.0035551085925184015
20 0.001751196608651769 0.0017408942304940774 1.808407904279087e-05
37 0.0014609907422388016 -0.00014646097956104665 -0.0007475208363395567
38 -0.0012868476420690208 0.002030772672862587 0.0034027046957762893
39 0.001431658419272949 -0.0001475448897880331 0.0034349551153028362
43 0.002633701032445267 0.0005833261283836881 0.0009582294229420099
45 0.0025049790434484753 0.00044858912203997984 -0.0028492773155715106
22 -0.003461916200137221 -0.0003731038543485035 0.0008704270598987563
24 0.001968262956787851 0.000419589220327451 -0.0023433230130588643
40 -0.003354406118889348 -0.00177745851875608 -0.00025482871050596994
41 -0.0037011983431864655 0.0028217383698212473 0.0006075991468852256
42 -0.0019688595455534183 0.00208595698490932 -0.0035388159484974046
47 0.0008631452811699781 0.003622048202470859 0.000407735037393483
26 -0.0011426501593079733 -0.0005736577439422612 -0.0010380526310123242
32 0.0005600942069954866 -0.002196456331830005 0.004205197704989926
44 0.0023223665653905336 -0.00023595811714686058 0.0008961067614857432
49 -0.0009815868004100514 -0.0020135010904618516 -0.0017802551728291903
50 0.00245669868938128 0.0019665428122390026 -0.0005145465134847086
51 -0.001080317697994808 -0.0038037970060466114 6.380508443939322e-05
28 -0.004693777389153862 -0.0024724604544519475 0.002600003226853008
30 0.0015889129179683245 -0.0024039361990313745 0.0009032634436581561
34 -0.0027007221861506665 -0.0008275140394496831 -0.0013409889113382147
36 -0.0002175653711002826 -0.006406951654467014 -7.942261009510683e-05
46 5.009583940740527e-05 0.0026682919847946024 -0.0038075066908557164
48 -0.0034578522136597674 -0.0007177960294180081 0.001252473847758075
52 -0.0021333208174537277 -0.0008009677910390914 -0.0001793738785939273
53 -0.00012121751441958914 0.00033887319999198863 0.000979282559192896
54 -0.0004973256007309404 0.0006677765632908512 0.0005728846377821139
